ITEM: TIMESTEP
0
ITEM: NUMBER OF ATOMS
12480
ITEM: BOX BOUNDS pp pp pp
-6.7443781923708830e+00 1.6294437819236043e+02
8.8767275409945814e+00 1.5222327245900948e+02
-2.0000000000000001e-01 2.0000000000000001e-01
ITEM: ATOMS id mol type x y z ix iy 
3 1 1 -5.0292 9.37759 0 0 0 
4 1 1 -4.93837 10.8778 0 0 0 
5 1 1 -3.49471 11.259 0 0 0 
236 48 1 -6.12056 10.3586 0 1 0 
242 49 1 -5.8789 11.6227 0 0 0 
243 49 1 -4.4593 12.0569 0 0 0 
1 1 1 -2.68643 10.008 0 0 0 
241 49 1 -6.74331 12.8243 0 0 0 
247 50 1 -2.39312 11.8338 0 0 0 
6 2 1 0.8926 10.2867 0 0 0 
8 2 1 -1.4537 9.60515 0 0 0 
9 2 1 -1.39721 11.097 0 0 0 
10 2 1 0.0356034 11.5164 0 0 0 
248 50 1 -0.934738 12.2214 0 0 0 
252 51 1 1.18954 11.5279 0 0 0 
7 2 1 -0.0430387 9.09001 0 0 0 
251 51 1 0.298671 12.7394 0 0 0 
11 3 1 4.49045 10.0609 0 0 0 
13 3 1 2.15181 9.36442 0 0 0 
14 3 1 2.17479 10.8554 0 0 0 
15 3 1 3.6173 11.2936 0 0 0 
18 4 1 5.72708 9.53556 0 0 0 
19 4 1 5.6847 11.0324 0 0 0 
253 51 1 2.61012 11.9949 0 0 0 
257 52 1 4.76786 11.8511 0 0 0 
258 52 1 6.16291 12.3683 0 0 0 
16 4 1 8.04457 10.3447 0 0 0 
20 4 1 7.10657 11.5442 0 0 0 
23 5 1 9.22438 9.32896 0 0 0 
24 5 1 9.25999 10.8247 0 0 0 
262 53 1 8.34486 11.6185 0 0 0 
263 53 1 9.72124 12.196 0 0 0 
17 4 1 7.1818 9.10973 0 0 0 
261 53 1 7.36047 12.7369 0 0 0 
21 5 1 11.5469 10.0253 0 0 0 
25 5 1 10.6851 11.2603 0 0 0 
28 6 1 12.6759 9.65001 0 0 0 
29 6 1 12.6727 11.1377 0 0 0 
30 6 1 14.1133 11.6041 0 0 0 
267 54 1 11.7111 11.8223 0 0 0 
268 54 1 13.1269 12.2974 0 0 0 
27 6 1 14.1054 9.17074 0 0 0 
271 55 1 14.3685 12.7522 0 0 0 
246 50 1 -3.22107 13.0648 0 0 0 
244 49 1 -4.42959 13.5548 0 0 0 
245 49 1 -5.84333 14.043 0 0 0 
482 97 1 -3.44298 14.3146 0 0 0 
483 97 1 -4.86409 14.811 0 0 0 
484 97 1 -4.83271 16.3034 0 0 0 
716 144 1 -6.12962 15.8021 0 1 0 
481 97 1 -2.53861 15.5332 0 0 0 
485 97 1 -3.39467 16.7331 0 0 0 
722 145 1 -5.80087 16.9982 0 0 0 
250 50 1 -2.28053 14.2547 0 0 0 
249 50 1 -0.865628 13.7264 0 0 0 
255 51 1 1.18174 13.9629 0 0 0 
486 98 1 0.9512 15.7861 0 0 0 
487 98 1 0.107474 14.5185 0 0 0 
488 98 1 -1.34468 14.9241 0 0 0 
489 98 1 -1.38995 16.429 0 0 0 
490 98 1 0.0175672 16.9457 0 0 0 
256 52 1 3.83409 13.0087 0 0 0 
254 51 1 2.59984 13.4962 0 0 0 
260 52 1 4.66211 14.2607 0 0 0 
491 99 1 4.36945 15.5526 0 0 0 
492 99 1 3.48158 14.3458 0 0 0 
493 99 1 2.06632 14.8474 0 0 0 
494 99 1 2.08395 16.3502 0 0 0 
495 99 1 3.51027 16.7905 0 0 0 
498 100 1 5.62077 15.0459 0 0 0 
499 100 1 5.62632 16.5312 0 0 0 
259 52 1 6.10856 13.8723 0 0 0 
264 53 1 9.57796 13.6964 0 0 0 
265 53 1 8.11784 14.0253 0 0 0 
496 100 1 7.93841 15.7816 0 0 0 
497 100 1 7.05016 14.5769 0 0 0 
502 101 1 9.10622 14.918 0 0 0 
503 101 1 9.16387 16.3961 0 0 0 
500 100 1 7.04873 17.0079 0 0 0 
507 102 1 14.071 14.5595 0 0 0 
266 54 1 10.8052 13.0111 0 0 0 
504 101 1 10.603 16.7993 0 0 0 
505 101 1 11.4263 15.5668 0 0 0 
508 102 1 12.652 15.0522 0 0 0 
509 102 1 12.6912 16.5414 0 0 0 
269 54 1 13.1203 13.7965 0 0 0 
270 54 1 11.6829 14.2428 0 0 0 
501 101 1 10.4966 14.3972 0 0 0 
510 102 1 14.1175 16.9902 0 0 0 
721 145 1 -6.67529 18.2466 0 0 0 
962 193 1 -3.47233 19.8388 0 0 0 
963 193 1 -4.90075 20.3082 0 0 0 
723 145 1 -4.3844 17.4634 0 0 0 
724 145 1 -4.36881 18.9594 0 0 0 
725 145 1 -5.78539 19.4577 0 0 0 
726 146 1 -3.15077 18.5713 0 0 0 
961 193 1 -2.57665 21.0756 0 0 0 
727 146 1 -2.28385 17.3463 0 0 0 
732 147 1 1.24222 17.1763 0 0 0 
728 146 1 -0.852965 17.7743 0 0 0 
729 146 1 -0.828428 19.278 0 0 0 
730 146 1 -2.23988 19.7798 0 0 0 
731 147 1 0.3206 18.372 0 0 0 
735 147 1 1.18079 19.6079 0 0 0 
967 194 1 0.0763648 20.1841 0 0 0 
968 194 1 -1.35308 20.6332 0 0 0 
733 147 1 2.647 17.6764 0 0 0 
734 147 1 2.61494 19.1734 0 0 0 
736 148 1 3.82049 18.6424 0 0 0 
737 148 1 4.6622 17.3808 0 0 0 
740 148 1 4.76676 19.8141 0 0 0 
972 195 1 3.60567 19.8817 0 0 0 
973 195 1 2.16116 20.3678 0 0 0 
978 196 1 5.71369 20.5091 0 0 0 
971 195 1 4.49778 21.0933 0 0 0 
742 149 1 8.1666 17.1014 0 0 0 
738 148 1 6.10232 17.7836 0 0 0 
739 148 1 6.1786 19.2938 0 0 0 
741 149 1 7.33791 18.3574 0 0 0 
743 149 1 9.61191 17.4933 0 0 0 
744 149 1 9.66622 19.0052 0 0 0 
745 149 1 8.26264 19.5236 0 0 0 
977 196 1 7.18228 20.178 0 0 0 
983 197 1 9.15154 20.432 0 0 0 
987 198 1 14.1226 20.096 0 0 0 
746 150 1 10.8809 18.5307 0 0 0 
747 150 1 11.7639 17.2935 0 0 0 
748 150 1 13.1849 17.7451 0 0 0 
749 150 1 13.1986 19.2601 0 0 0 
750 150 1 11.7868 19.725 0 0 0 
982 197 1 10.5367 19.8613 0 0 0 
988 198 1 12.7045 20.5818 0 0 0 
981 197 1 11.4942 21.0078 0 0 0 
751 151 1 14.3568 18.2671 0 0 0 
1196 240 1 -6.13666 21.399 0 1 0 
964 193 1 -4.88614 21.7961 0 0 0 
965 193 1 -3.4672 22.2801 0 0 0 
1201 241 1 -5.8773 22.6626 0 0 0 
1202 241 1 -4.45356 23.1288 0 0 0 
1203 241 1 -4.4736 24.6232 0 0 0 
1206 242 1 -3.26347 24.1863 0 0 0 
1204 241 1 -5.90158 25.0559 0 0 0 
1207 242 1 -2.48767 22.9171 0 0 0 
966 194 1 0.937441 21.381 0 0 0 
969 194 1 -1.35156 22.1201 0 0 0 
970 194 1 0.0623623 22.5932 0 0 0 
1208 242 1 -1.03415 23.2713 0 0 0 
1209 242 1 -0.900211 24.7555 0 0 0 
1211 243 1 0.346422 23.8539 0 0 0 
1212 243 1 1.24812 22.6497 0 0 0 
1215 243 1 1.2092 25.0785 0 0 0 
974 195 1 2.17516 21.8676 0 0 0 
975 195 1 3.60751 22.3041 0 0 0 
979 196 1 5.57612 22.0065 0 0 0 
1213 243 1 2.65883 23.1426 0 0 0 
1214 243 1 2.63736 24.649 0 0 0 
1216 244 1 3.78832 24.1801 0 0 0 
1217 244 1 4.62711 22.9357 0 0 0 
1218 244 1 6.05559 23.3377 0 0 0 
1219 244 1 6.11207 24.8473 0 0 0 
976 196 1 7.94286 21.461 0 0 0 
980 196 1 6.96151 22.5985 0 0 0 
984 197 1 9.23746 21.9172 0 0 0 
1221 245 1 7.31507 23.8511 0 0 0 
1222 245 1 8.2038 22.6421 0 0 0 
1223 245 1 9.62449 23.1177 0 0 0 
1224 245 1 9.60555 24.6316 0 0 0 
1225 245 1 8.18615 25.0756 0 0 0 
1232 247 1 14.4422 23.7945 0 0 0 
985 197 1 10.6915 22.2698 0 0 0 
989 198 1 12.7137 22.0669 0 0 0 
1226 246 1 10.9226 24.1128 0 0 0 
1227 246 1 11.7188 22.8452 0 0 0 
1228 246 1 13.1689 23.208 0 0 0 
1229 246 1 13.2734 24.7137 0 0 0 
990 198 1 14.1431 22.5202 0 0 0 
1442 289 1 -3.52927 25.3457 0 0 0 
1682 337 1 -5.73167 28.2309 0 0 0 
1683 337 1 -4.33577 28.7572 0 0 0 
1443 289 1 -4.96129 25.8581 0 0 0 
1444 289 1 -4.91346 27.3582 0 0 0 
1445 289 1 -3.46271 27.7833 0 0 0 
1676 336 1 -6.03913 26.8908 0 1 0 
1441 289 1 -2.61435 26.5321 0 0 0 
1210 242 1 -2.28461 25.3246 0 0 0 
1687 338 1 -2.36888 28.4012 0 0 0 
1688 338 1 -0.915458 28.7538 0 0 0 
1692 339 1 1.23637 28.2431 0 0 0 
1446 290 1 0.962255 26.8112 0 0 0 
1447 290 1 0.0952928 25.5817 0 0 0 
1448 290 1 -1.33538 26.0519 0 0 0 
1449 290 1 -1.33275 27.55 0 0 0 
1450 290 1 0.086684 28.0295 0 0 0 
1220 244 1 4.72261 25.3534 0 0 0 
1452 291 1 3.49065 25.4386 0 0 0 
1458 292 1 5.68832 26.1518 0 0 0 
1459 292 1 5.74678 27.6528 0 0 0 
1693 339 1 2.63635 28.754 0 0 0 
1697 340 1 4.72276 28.3797 0 0 0 
1451 291 1 4.4045 26.631 0 0 0 
1453 291 1 2.0732 25.9454 0 0 0 
1454 291 1 2.12608 27.445 0 0 0 
1455 291 1 3.56796 27.876 0 0 0 
1701 341 1 7.43646 29.3098 0 0 0 
1698 340 1 6.16807 28.7823 0 0 0 
1456 292 1 8.01647 26.8009 0 0 0 
1457 292 1 7.0754 25.6234 0 0 0 
1460 292 1 7.18853 28.0529 0 0 0 
1463 293 1 9.17605 25.8818 0 0 0 
1464 293 1 9.23711 27.378 0 0 0 
1702 341 1 8.30752 28.0827 0 0 0 
1703 341 1 9.73761 28.5291 0 0 0 
1469 294 1 12.803 27.5285 0 0 0 
1470 294 1 14.2176 28.0231 0 0 0 
1468 294 1 12.8446 26.0267 0 0 0 
1465 293 1 10.6994 27.7764 0 0 0 
1230 246 1 11.9031 25.2608 0 0 0 
1708 342 1 13.2423 28.8232 0 0 0 
1462 293 1 10.5572 25.3467 0 0 0 
1461 293 1 11.5179 26.5134 0 0 0 
1467 294 1 14.2936 25.6085 0 0 0 
1707 342 1 11.8234 28.3863 0 0 0 
1684 337 1 -4.40172 30.2689 0 0 0 
1685 337 1 -5.83976 30.6704 0 0 0 
1922 385 1 -3.37511 31.0164 0 0 0 
1923 385 1 -4.79831 31.4932 0 0 0 
1924 385 1 -4.78686 32.9811 0 0 0 
2156 432 1 -6.08809 32.384 0 1 0 
1686 338 1 -3.14384 29.6637 0 0 0 
1925 385 1 -3.34676 33.4453 0 0 0 
1681 337 1 -6.66457 29.4061 0 0 0 
1921 385 1 -2.48094 32.2331 0 0 0 
1689 338 1 -0.793524 30.2602 0 0 0 
1690 338 1 -2.1911 30.8193 0 0 0 
1695 339 1 1.11583 30.6515 0 0 0 
1926 386 1 0.97789 32.399 0 0 0 
1927 386 1 0.0365391 31.2262 0 0 0 
1928 386 1 -1.37244 31.7819 0 0 0 
1929 386 1 -1.28791 33.2913 0 0 0 
1691 339 1 0.302902 29.408 0 0 0 
1694 339 1 2.57382 30.2542 0 0 0 
1700 340 1 4.81239 30.8139 0 0 0 
1931 387 1 4.55343 32.0248 0 0 0 
1932 387 1 3.61985 30.8426 0 0 0 
1933 387 1 2.20209 31.3719 0 0 0 
1934 387 1 2.28477 32.8745 0 0 0 
1938 388 1 5.74079 31.5862 0 0 0 
1939 388 1 5.75936 33.1027 0 0 0 
1696 340 1 3.89759 29.6182 0 0 0 
1935 387 1 3.74816 33.2781 0 0 0 
1699 340 1 6.22218 30.2839 0 0 0 
1704 341 1 9.7552 30.0287 0 0 0 
1705 341 1 8.3514 30.5066 0 0 0 
1936 388 1 8.0552 32.3473 0 0 0 
1937 388 1 7.16742 31.1107 0 0 0 
1943 389 1 9.26789 31.4264 0 0 0 
1944 389 1 9.32665 32.9196 0 0 0 
1709 342 1 13.2819 30.3301 0 0 0 
1710 342 1 11.8656 30.8178 0 0 0 
1941 389 1 11.6314 32.0404 0 0 0 
1942 389 1 10.6845 30.8693 0 0 0 
1947 390 1 14.3109 31.2466 0 0 0 
1948 390 1 12.8523 31.6322 0 0 0 
1949 390 1 12.765 33.1516 0 0 0 
1945 389 1 10.7903 33.3165 0 0 0 
1706 342 1 10.9693 29.617 0 0 0 
2161 433 1 -6.62948 34.9274 0 0 0 
2162 433 1 -5.74282 33.7437 0 0 0 
2163 433 1 -4.33173 34.2289 0 0 0 
2164 433 1 -4.36409 35.7325 0 0 0 
2165 433 1 -5.77946 36.1553 0 0 0 
2166 434 1 -3.12059 35.2943 0 0 0 
2402 481 1 -3.48505 36.5555 0 0 0 
2403 481 1 -4.91543 37.0133 0 0 0 
1930 386 1 0.164903 33.6629 0 0 0 
2167 434 1 -2.24257 34.0678 0 0 0 
2408 482 1 -1.21022 37.1741 0 0 0 
2168 434 1 -0.82022 34.5122 0 0 0 
2169 434 1 -0.799088 36.0255 0 0 0 
2170 434 1 -2.23181 36.5078 0 0 0 
2171 435 1 0.469421 34.8922 0 0 0 
2172 435 1 1.3649 33.6923 0 0 0 
2175 435 1 1.32174 36.1325 0 0 0 
2407 482 1 0.237881 36.769 0 0 0 
2412 483 1 3.71409 36.4459 0 0 0 
2413 483 1 2.28933 36.9108 0 0 0 
2418 484 1 5.80272 37.1058 0 0 0 
2173 435 1 2.77876 34.1851 0 0 0 
2174 435 1 2.74074 35.6818 0 0 0 
2176 436 1 3.96756 35.1415 0 0 0 
2177 436 1 4.80777 33.9001 0 0 0 
2180 436 1 4.89118 36.3248 0 0 0 
1940 388 1 7.18857 33.5685 0 0 0 
2178 436 1 6.23209 34.3237 0 0 0 
2185 437 1 8.31095 36.0242 0 0 0 
2184 437 1 9.7456 35.5796 0 0 0 
2417 484 1 7.2219 36.5873 0 0 0 
2423 485 1 9.21241 37.0442 0 0 0 
2179 436 1 6.29982 35.8239 0 0 0 
2181 437 1 7.44689 34.7973 0 0 0 
2182 437 1 8.33523 33.5956 0 0 0 
2183 437 1 9.7614 34.0858 0 0 0 
1950 390 1 14.1827 33.6824 0 0 0 
2186 438 1 10.9535 35.2562 0 0 0 
2187 438 1 11.8285 34.0147 0 0 0 
2188 438 1 13.2535 34.4842 0 0 0 
2189 438 1 13.2758 35.9766 0 0 0 
2190 438 1 11.8737 36.4568 0 0 0 
2422 485 1 10.6232 36.4847 0 0 0 
2428 486 1 12.7716 37.1933 0 0 0 
2427 486 1 14.2225 36.7529 0 0 0 
2401 481 1 -2.60317 37.7673 0 0 0 
2636 528 1 -6.05564 37.8121 0 1 0 
2642 529 1 -5.80526 39.3023 0 0 0 
2643 529 1 -4.38769 39.7802 0 0 0 
2644 529 1 -4.41327 41.2815 0 0 0 
2646 530 1 -3.21119 40.5771 0 0 0 
2404 481 1 -4.92507 38.5214 0 0 0 
2405 481 1 -3.48258 38.9824 0 0 0 
2641 529 1 -6.71583 40.5044 0 0 0 
2647 530 1 -2.333 39.373 0 0 0 
2409 482 1 -1.30475 38.6595 0 0 0 
2410 482 1 0.117697 39.2168 0 0 0 
2648 530 1 -0.912377 39.8248 0 0 0 
2649 530 1 -0.897412 41.3284 0 0 0 
2651 531 1 0.430191 40.3675 0 0 0 
2652 531 1 1.32376 39.1819 0 0 0 
2406 482 1 1.07138 38.017 0 0 0 
2655 531 1 1.30601 41.6062 0 0 0 
2411 483 1 4.61057 37.6562 0 0 0 
2414 483 1 2.2884 38.4167 0 0 0 
2415 483 1 3.72785 38.8743 0 0 0 
2419 484 1 5.86536 38.5964 0 0 0 
2653 531 1 2.73875 39.6601 0 0 0 
2654 531 1 2.72428 41.1651 0 0 0 
2656 532 1 4.07039 40.541 0 0 0 
2657 532 1 4.94233 39.3118 0 0 0 
2659 532 1 6.38906 41.2672 0 0 0 
2416 484 1 8.15969 37.7675 0 0 0 
2420 484 1 7.31337 39.0154 0 0 0 
2424 485 1 9.28833 38.537 0 0 0 
2658 532 1 6.36414 39.7771 0 0 0 
2661 533 1 7.48763 40.5672 0 0 0 
2662 533 1 8.4171 39.392 0 0 0 
2663 533 1 9.82853 39.8873 0 0 0 
2664 533 1 9.77863 41.3808 0 0 0 
2421 485 1 11.5813 37.6589 0 0 0 
2425 485 1 10.758 38.9193 0 0 0 
2429 486 1 12.7511 38.686 0 0 0 
2430 486 1 14.1708 39.1787 0 0 0 
2666 534 1 10.9542 40.8877 0 0 0 
2667 534 1 11.7718 39.6066 0 0 0 
2668 534 1 13.2243 39.9688 0 0 0 
2669 534 1 13.3312 41.4735 0 0 0 
2645 529 1 -5.83653 41.7203 0 0 0 
2882 577 1 -3.42956 41.9496 0 0 0 
2883 577 1 -4.85263 42.4461 0 0 0 
2884 577 1 -4.80882 43.9567 0 0 0 
2885 577 1 -3.37414 44.3625 0 0 0 
3116 624 1 -6.08075 43.5312 0 1 0 
3122 625 1 -5.77928 44.7451 0 0 0 
3123 625 1 -4.33949 45.1462 0 0 0 
2881 577 1 -2.52048 43.1299 0 0 0 
3127 626 1 -2.24381 44.9029 0 0 0 
2650 530 1 -2.31586 41.7907 0 0 0 
2886 578 1 0.972267 43.3039 0 0 0 
2887 578 1 0.079776 42.1108 0 0 0 
2888 578 1 -1.32982 42.5824 0 0 0 
2889 578 1 -1.31739 44.0895 0 0 0 
2890 578 1 0.092841 44.5137 0 0 0 
3128 626 1 -0.815126 45.3694 0 0 0 
3132 627 1 1.3548 44.6021 0 0 0 
3131 627 1 0.388282 45.7286 0 0 0 
2660 532 1 4.96435 41.7453 0 0 0 
3137 628 1 4.74172 45.0201 0 0 0 
2891 579 1 4.57385 43.1893 0 0 0 
2892 579 1 3.76534 41.9158 0 0 0 
2893 579 1 2.33558 42.2882 0 0 0 
2894 579 1 2.2134 43.782 0 0 0 
2895 579 1 3.61056 44.334 0 0 0 
2898 580 1 5.81653 42.762 0 0 0 
2899 580 1 5.76352 44.2425 0 0 0 
3133 627 1 2.73489 45.1591 0 0 0 
2665 533 1 8.32343 41.8077 0 0 0 
3138 628 1 6.18702 45.4264 0 0 0 
3142 629 1 8.37685 44.8818 0 0 0 
3143 629 1 9.79372 45.3399 0 0 0 
2896 580 1 8.12304 43.5936 0 0 0 
2897 580 1 7.27049 42.3422 0 0 0 
2900 580 1 7.19038 44.7782 0 0 0 
2903 581 1 9.29802 42.5508 0 0 0 
2904 581 1 9.28516 44.0381 0 0 0 
2910 582 1 14.1924 44.7503 0 0 0 
3147 630 1 11.8399 45.1104 0 0 0 
3148 630 1 13.2997 45.5391 0 0 0 
2670 534 1 11.94 42.0495 0 0 0 
2901 581 1 11.6034 43.3078 0 0 0 
2902 581 1 10.7259 42.0859 0 0 0 
2905 581 1 10.7179 44.5096 0 0 0 
2908 582 1 12.7959 42.7705 0 0 0 
2909 582 1 12.7779 44.2649 0 0 0 
2907 582 1 14.227 42.3197 0 0 0 
3364 673 1 -4.89997 49.54 0 0 0 
3362 673 1 -3.50822 47.5585 0 0 0 
3363 673 1 -4.91303 48.0306 0 0 0 
3600 720 1 -6.10308 49.0386 0 1 0 
3124 625 1 -4.29125 46.6421 0 0 0 
3125 625 1 -5.69975 47.1634 0 0 0 
3126 626 1 -3.13614 46.124 0 0 0 
3361 673 1 -2.60628 48.7511 0 0 0 
3121 625 1 -6.61486 45.9843 0 0 0 
3130 626 1 -2.26203 47.3263 0 0 0 
3366 674 1 0.95437 48.987 0 0 0 
3367 674 1 0.101083 47.785 0 0 0 
3368 674 1 -1.33428 48.2528 0 0 0 
3129 626 1 -0.835177 46.8732 0 0 0 
3135 627 1 1.1668 46.9957 0 0 0 
3369 674 1 -1.33664 49.7553 0 0 0 
3379 676 1 5.73717 49.7214 0 0 0 
3374 675 1 2.17772 49.3962 0 0 0 
3136 628 1 3.90573 46.2575 0 0 0 
3140 628 1 4.81786 47.4254 0 0 0 
3371 675 1 4.49528 48.6267 0 0 0 
3372 675 1 3.60017 47.4258 0 0 0 
3373 675 1 2.17459 47.9006 0 0 0 
3378 676 1 5.80584 48.2342 0 0 0 
3134 627 1 2.6337 46.646 0 0 0 
3141 629 1 7.5022 46.0961 0 0 0 
3139 628 1 6.2267 46.9089 0 0 0 
3144 629 1 9.81587 46.8257 0 0 0 
3145 629 1 8.39328 47.3014 0 0 0 
3376 676 1 8.06996 49.0765 0 0 0 
3377 676 1 7.24803 47.8445 0 0 0 
3383 677 1 9.36715 48.0461 0 0 0 
3384 677 1 9.39711 49.5509 0 0 0 
3390 678 1 12.8376 49.8081 0 0 0 
3151 631 1 14.4576 45.9965 0 0 0 
3149 630 1 13.3339 47.0313 0 0 0 
3146 630 1 11.0094 46.3519 0 0 0 
3382 677 1 10.805 47.5732 0 0 0 
3389 678 1 12.9071 48.3151 0 0 0 
3381 677 1 11.703 48.7751 0 0 0 
3150 630 1 11.9263 47.5387 0 0 0 
3388 678 1 14.3487 47.9224 0 0 0 
3602 721 1 -5.85853 50.3111 0 0 0 
3603 721 1 -4.43565 50.7581 0 0 0 
3604 721 1 -4.42168 52.2517 0 0 0 
3605 721 1 -5.85856 52.7394 0 0 0 
3606 722 1 -3.19888 51.6779 0 0 0 
3842 769 1 -3.47194 52.9732 0 0 0 
3843 769 1 -4.88907 53.4038 0 0 0 
3365 673 1 -3.46278 49.9784 0 0 0 
3601 721 1 -6.74304 51.5401 0 0 0 
3607 722 1 -2.31941 50.453 0 0 0 
3610 722 1 -2.3049 52.8863 0 0 0 
3608 722 1 -0.891073 50.9188 0 0 0 
3609 722 1 -0.887301 52.4274 0 0 0 
3611 723 1 0.333822 51.3551 0 0 0 
3612 723 1 1.2397 50.183 0 0 0 
3615 723 1 1.1857 52.5974 0 0 0 
3846 770 1 0.0844624 53.2015 0 0 0 
3847 770 1 -1.34601 53.7057 0 0 0 
3370 674 1 0.0873125 50.2069 0 0 0 
3613 723 1 2.65958 50.6721 0 0 0 
3614 723 1 2.62039 52.1584 0 0 0 
3616 724 1 3.8379 51.7143 0 0 0 
3617 724 1 4.62503 50.4362 0 0 0 
3620 724 1 4.79058 52.8659 0 0 0 
3851 771 1 3.53198 52.8964 0 0 0 
3852 771 1 2.11427 53.3724 0 0 0 
3858 772 1 5.70946 53.6791 0 0 0 
3375 675 1 3.61004 49.8548 0 0 0 
3618 724 1 6.08897 50.8093 0 0 0 
3380 676 1 7.13638 50.2551 0 0 0 
3619 724 1 6.18766 52.2912 0 0 0 
3621 725 1 7.50939 51.5435 0 0 0 
3622 725 1 8.44126 50.3486 0 0 0 
3623 725 1 9.85054 50.8636 0 0 0 
3624 725 1 9.79906 52.3396 0 0 0 
3625 725 1 8.34865 52.774 0 0 0 
3857 772 1 7.14549 53.2719 0 0 0 
3863 773 1 9.26405 53.5661 0 0 0 
3868 774 1 12.8917 53.789 0 0 0 
3626 726 1 10.9771 51.8813 0 0 0 
3627 726 1 11.8504 50.6754 0 0 0 
3628 726 1 13.2832 51.1214 0 0 0 
3629 726 1 13.2833 52.6218 0 0 0 
3630 726 1 11.866 53.0803 0 0 0 
3862 773 1 10.7026 53.0961 0 0 0 
3867 774 1 14.3335 53.3888 0 0 0 
3386 678 1 14.2123 50.3389 0 0 0 
3385 677 1 10.8171 49.9908 0 0 0 
4090 818 1 -3.24134 57.0543 0 0 0 
3844 769 1 -4.9287 54.9104 0 0 0 
3845 769 1 -3.50781 55.4129 0 0 0 
4080 816 1 -6.20802 54.4559 0 1 0 
4083 817 1 -5.88572 55.7427 0 0 0 
4084 817 1 -4.47952 56.2593 0 0 0 
4085 817 1 -4.53698 57.7405 0 0 0 
3841 769 1 -2.60588 54.2108 0 0 0 
4086 818 1 -2.3247 55.8945 0 0 0 
4091 819 1 1.25432 55.7277 0 0 0 
4095 819 1 0.316003 56.9036 0 0 0 
3848 770 1 -1.30646 55.1954 0 0 0 
3849 770 1 0.116431 55.6177 0 0 0 
3850 770 1 0.977139 54.3855 0 0 0 
4087 818 1 -0.895878 56.399 0 0 0 
4088 818 1 -0.956251 57.8941 0 0 0 
4092 819 1 2.65105 56.2419 0 0 0 
4093 819 1 2.5725 57.7592 0 0 0 
4096 820 1 4.6631 55.9688 0 0 0 
4100 820 1 3.79049 57.198 0 0 0 
3853 771 1 2.12669 54.8798 0 0 0 
3854 771 1 3.56216 55.3348 0 0 0 
3855 771 1 4.42593 54.1053 0 0 0 
3859 772 1 5.64152 55.1928 0 0 0 
4097 820 1 6.09422 56.4416 0 0 0 
3864 773 1 9.27879 55.0742 0 0 0 
4101 821 1 7.33234 56.9514 0 0 0 
4102 821 1 8.25354 55.7781 0 0 0 
4103 821 1 9.6678 56.2962 0 0 0 
4104 821 1 9.61737 57.7903 0 0 0 
3856 772 1 7.96993 54.5093 0 0 0 
3860 772 1 7.05098 55.6891 0 0 0 
4098 820 1 6.10721 57.9264 0 0 0 
3865 773 1 10.7168 55.5255 0 0 0 
3869 774 1 12.8308 55.2702 0 0 0 
3870 774 1 14.2359 55.7995 0 0 0 
4106 822 1 10.9731 57.1685 0 0 0 
4107 822 1 11.8869 55.9911 0 0 0 
4108 822 1 13.28 56.483 0 0 0 
3861 773 1 11.6086 54.2975 0 0 0 
4109 822 1 13.2617 57.9721 0 0 0 
4081 817 1 -5.97873 58.1608 0 0 0 
4322 865 1 -3.54994 58.5484 0 0 0 
4323 865 1 -4.99247 58.969 0 0 0 
4324 865 1 -5.04201 60.4738 0 0 0 
4325 865 1 -3.62177 60.9737 0 0 0 
4558 912 1 -6.27558 59.9531 0 1 0 
4562 913 1 -6.02823 61.1715 0 0 0 
4563 913 1 -4.60971 61.667 0 0 0 
4321 865 1 -2.71099 59.7923 0 0 0 
4567 914 1 -2.48107 61.4322 0 0 0 
4094 819 1 1.11694 58.1514 0 0 0 
4089 818 1 -2.40967 58.2968 0 0 0 
4326 866 1 0.886312 59.9797 0 0 0 
4327 866 1 0.0448778 58.7222 0 0 0 
4328 866 1 -1.41615 59.1465 0 0 0 
4329 866 1 -1.47838 60.6456 0 0 0 
4330 866 1 -0.0565178 61.1624 0 0 0 
4571 915 1 1.13992 61.2265 0 0 0 
4568 914 1 -1.0354 61.8827 0 0 0 
4099 820 1 4.69053 58.4023 0 0 0 
4331 867 1 2.1064 58.9539 0 0 0 
4332 867 1 2.12558 60.4749 0 0 0 
4333 867 1 3.54722 60.9246 0 0 0 
4334 867 1 4.42003 59.7116 0 0 0 
4335 867 1 3.53598 58.4766 0 0 0 
4339 868 1 5.63982 59.1868 0 0 0 
4340 868 1 5.66942 60.6859 0 0 0 
4572 915 1 2.53089 61.7723 0 0 0 
4578 916 1 4.57662 61.519 0 0 0 
4105 821 1 8.16771 58.1986 0 0 0 
4336 868 1 7.06646 61.1427 0 0 0 
4337 868 1 7.96589 59.945 0 0 0 
4338 868 1 7.08468 58.7201 0 0 0 
4344 869 1 9.20269 58.9275 0 0 0 
4345 869 1 9.24549 60.4196 0 0 0 
4583 917 1 8.28177 61.1209 0 0 0 
4584 917 1 9.67589 61.6541 0 0 0 
4579 916 1 6.03706 61.8773 0 0 0 
4110 822 1 11.8331 58.4071 0 0 0 
4341 869 1 10.6698 60.85 0 0 0 
4342 869 1 11.5178 59.6167 0 0 0 
4343 869 1 10.611 58.4285 0 0 0 
4348 870 1 12.9224 59.2758 0 0 0 
4349 870 1 12.8314 60.7777 0 0 0 
4350 870 1 14.2255 61.3247 0 0 0 
4587 918 1 11.7301 61.5131 0 0 0 
4588 918 1 13.171 61.9329 0 0 0 
4347 870 1 14.3587 58.9085 0 0 0 
4564 913 1 -4.64219 63.1661 0 0 0 
4565 913 1 -6.08418 63.5972 0 0 0 
4566 914 1 -3.34122 62.6606 0 0 0 
4802 961 1 -3.70183 63.9037 0 0 0 
4803 961 1 -5.11328 64.405 0 0 0 
5037 1008 1 -6.25318 65.4931 0 1 0 
4801 961 1 -2.7731 65.0941 0 0 0 
4804 961 1 -5.05494 65.9129 0 0 0 
4569 914 1 -1.03212 63.3833 0 0 0 
4570 914 1 -2.45539 63.8631 0 0 0 
4574 915 1 1.02275 63.6573 0 0 0 
4575 915 1 0.218123 62.3875 0 0 0 
4806 962 1 0.769975 65.4003 0 0 0 
4807 962 1 -0.127852 64.1863 0 0 0 
4808 962 1 -1.54815 64.6786 0 0 0 
4809 962 1 -1.5377 66.1922 0 0 0 
4818 964 1 5.67398 64.7699 0 0 0 
4573 915 1 2.47411 63.2558 0 0 0 
4576 916 1 4.76076 63.9506 0 0 0 
4577 916 1 3.78739 62.7966 0 0 0 
4811 963 1 4.38124 65.2808 0 0 0 
4812 963 1 3.53584 64.0404 0 0 0 
4813 963 1 2.11184 64.4754 0 0 0 
4814 963 1 2.07664 65.9512 0 0 0 
4816 964 1 7.98712 65.5248 0 0 0 
4817 964 1 7.10553 64.3094 0 0 0 
4823 965 1 9.17269 64.5342 0 0 0 
4824 965 1 9.22332 66.0291 0 0 0 
4580 916 1 6.1533 63.3747 0 0 0 
4581 917 1 8.16629 63.5499 0 0 0 
4582 917 1 7.35169 62.2949 0 0 0 
4585 917 1 9.60962 63.1559 0 0 0 
4829 966 1 12.689 66.1073 0 0 0 
4821 965 1 11.513 65.2321 0 0 0 
4822 965 1 10.5984 64.0355 0 0 0 
4828 966 1 12.7585 64.6084 0 0 0 
4586 918 1 10.8702 62.7925 0 0 0 
4589 918 1 13.2206 63.4235 0 0 0 
4590 918 1 11.8108 63.954 0 0 0 
4827 966 1 14.2007 64.2211 0 0 0 
4805 961 1 -3.61719 66.3429 0 0 0 
5284 1057 1 -4.93833 70.0351 0 0 0 
5041 1009 1 -5.95568 69.2266 0 0 0 
5043 1009 1 -5.88396 66.7956 0 0 0 
5044 1009 1 -4.47603 67.3053 0 0 0 
5045 1009 1 -4.52402 68.7964 0 0 0 
5047 1010 1 -3.28263 68.2981 0 0 0 
5283 1057 1 -3.51457 69.5595 0 0 0 
5048 1010 1 -2.52798 67.0076 0 0 0 
5046 1010 1 -2.28761 69.413 0 0 0 
5049 1010 1 -1.04383 67.3315 0 0 0 
5050 1010 1 -0.908584 68.8326 0 0 0 
5051 1011 1 1.1375 66.6468 0 0 0 
5054 1011 1 1.05414 69.0704 0 0 0 
5055 1011 1 0.201752 67.8247 0 0 0 
5286 1058 1 0.0862513 69.697 0 0 0 
4810 962 1 -0.0976578 66.628 0 0 0 
5287 1058 1 -1.33022 70.1752 0 0 0 
5298 1060 1 5.64101 70.2305 0 0 0 
4819 964 1 5.68164 66.2742 0 0 0 
4815 963 1 3.49179 66.4596 0 0 0 
5052 1011 1 2.53732 67.1581 0 0 0 
5053 1011 1 2.49411 68.66 0 0 0 
5056 1012 1 3.79146 68.2307 0 0 0 
5057 1012 1 4.66544 66.9901 0 0 0 
5060 1012 1 4.68521 69.4312 0 0 0 
5291 1059 1 3.5018 69.4287 0 0 0 
5292 1059 1 2.08876 69.9126 0 0 0 
5303 1061 1 9.1458 70.1087 0 0 0 
5058 1012 1 6.10533 67.4388 0 0 0 
4820 964 1 7.0972 66.7439 0 0 0 
5059 1012 1 6.12168 68.935 0 0 0 
5061 1013 1 7.33534 67.9692 0 0 0 
5062 1013 1 8.2866 66.8252 0 0 0 
5063 1013 1 9.70122 67.3717 0 0 0 
5064 1013 1 9.6108 68.8599 0 0 0 
5065 1013 1 8.15937 69.2352 0 0 0 
5297 1060 1 7.09094 69.794 0 0 0 
4830 966 1 14.0817 66.6466 0 0 0 
5068 1014 1 13.187 69.052 0 0 0 
5069 1014 1 11.7679 69.5089 0 0 0 
5308 1062 1 12.7162 70.2796 0 0 0 
5066 1014 1 11.7727 67.0854 0 0 0 
5070 1014 1 10.8886 68.2964 0 0 0 
4825 965 1 10.6584 66.4635 0 0 0 
5067 1014 1 13.1969 67.5444 0 0 0 
5302 1061 1 10.5249 69.5839 0 0 0 
5307 1062 1 14.141 69.7927 0 0 0 
5071 1015 1 14.3948 68.0791 0 0 0 
5281 1057 1 -3.48257 71.9686 0 0 0 
5285 1057 1 -4.92557 71.5402 0 0 0 
5516 1104 1 -6.20682 71.0021 0 1 0 
5522 1105 1 -5.90162 72.2356 0 0 0 
5523 1105 1 -4.47472 72.679 0 0 0 
5524 1105 1 -4.43657 74.1895 0 0 0 
5526 1106 1 -3.15366 73.625 0 0 0 
5282 1057 1 -2.61781 70.7352 0 0 0 
5527 1106 1 -2.28643 72.4034 0 0 0 
5288 1058 1 -1.32707 71.6694 0 0 0 
5289 1058 1 0.0966188 72.1178 0 0 0 
5290 1058 1 0.961728 70.8969 0 0 0 
5528 1106 1 -0.843277 72.8439 0 0 0 
5531 1107 1 0.329417 73.4471 0 0 0 
5532 1107 1 1.27217 72.2779 0 0 0 
5529 1106 1 -0.815134 74.3436 0 0 0 
5293 1059 1 2.13082 71.4176 0 0 0 
5294 1059 1 3.54416 71.8522 0 0 0 
5295 1059 1 4.40448 70.6282 0 0 0 
5299 1060 1 5.60062 71.7287 0 0 0 
5533 1107 1 2.68077 72.8185 0 0 0 
5536 1108 1 3.76418 73.7591 0 0 0 
5537 1108 1 4.61923 72.5231 0 0 0 
5534 1107 1 2.60401 74.3028 0 0 0 
5538 1108 1 6.06475 72.9517 0 0 0 
5296 1060 1 7.92339 71.0476 0 0 0 
5300 1060 1 7.00983 72.2277 0 0 0 
5304 1061 1 9.22198 71.6146 0 0 0 
5541 1109 1 7.346 73.5037 0 0 0 
5542 1109 1 8.2221 72.2903 0 0 0 
5543 1109 1 9.64351 72.7609 0 0 0 
5544 1109 1 9.62386 74.2567 0 0 0 
5547 1110 1 11.7377 72.6475 0 0 0 
5546 1110 1 10.8788 73.8761 0 0 0 
5548 1110 1 13.1831 73.0776 0 0 0 
5301 1061 1 11.4757 70.7413 0 0 0 
5305 1061 1 10.659 72.0059 0 0 0 
5309 1062 1 12.7128 71.7767 0 0 0 
5310 1062 1 14.1392 72.2282 0 0 0 
5996 1200 1 -6.16678 76.3651 0 1 0 
6002 1201 1 -5.7915 77.6031 0 0 0 
6003 1201 1 -4.3778 78.1163 0 0 0 
5525 1105 1 -5.85507 74.6563 0 0 0 
5762 1153 1 -3.41222 74.8814 0 0 0 
5763 1153 1 -4.80685 75.3782 0 0 0 
5764 1153 1 -4.77563 76.8803 0 0 0 
5765 1153 1 -3.33676 77.3036 0 0 0 
5761 1153 1 -2.49499 76.0639 0 0 0 
6007 1202 1 -2.35016 78.0093 0 0 0 
5768 1154 1 -1.33767 75.731 0 0 0 
5769 1154 1 -1.36328 77.2369 0 0 0 
5770 1154 1 0.0553657 77.7144 0 0 0 
6012 1203 1 1.27623 77.8329 0 0 0 
5530 1106 1 -2.23173 74.8316 0 0 0 
5535 1107 1 1.16146 74.6939 0 0 0 
5766 1154 1 0.966267 76.5077 0 0 0 
5767 1154 1 0.0897329 75.2974 0 0 0 
6008 1202 1 -0.928293 78.4804 0 0 0 
5771 1155 1 4.42345 76.204 0 0 0 
5772 1155 1 3.49403 75.0229 0 0 0 
5773 1155 1 2.07641 75.5505 0 0 0 
5774 1155 1 2.14388 77.0494 0 0 0 
5775 1155 1 3.60122 77.46 0 0 0 
5778 1156 1 5.62065 75.6691 0 0 0 
5779 1156 1 5.60495 77.1698 0 0 0 
6013 1203 1 2.6726 78.3848 0 0 0 
6017 1204 1 4.62708 78.0618 0 0 0 
5540 1108 1 4.68256 74.925 0 0 0 
5539 1108 1 6.08587 74.45 0 0 0 
5545 1109 1 8.21247 74.716 0 0 0 
5776 1156 1 7.92094 76.4393 0 0 0 
5777 1156 1 7.04755 75.2171 0 0 0 
5780 1156 1 7.02859 77.6417 0 0 0 
5783 1157 1 9.08445 75.5676 0 0 0 
5784 1157 1 9.10612 77.0665 0 0 0 
6022 1205 1 8.20519 77.7885 0 0 0 
6023 1205 1 9.59519 78.369 0 0 0 
5549 1110 1 13.1973 74.5597 0 0 0 
5550 1110 1 11.7878 75.0525 0 0 0 
5781 1157 1 11.3938 76.2916 0 0 0 
5782 1157 1 10.4998 75.0851 0 0 0 
5785 1157 1 10.5311 77.5044 0 0 0 
5788 1158 1 12.7902 75.7182 0 0 0 
5789 1158 1 12.7273 77.2126 0 0 0 
5790 1158 1 14.1182 77.761 0 0 0 
6027 1206 1 11.5789 78.08 0 0 0 
5787 1158 1 14.2582 75.3338 0 0 0 
6004 1201 1 -4.43047 79.608 0 0 0 
6005 1201 1 -5.86769 80.01 0 0 0 
6006 1202 1 -3.23913 79.2167 0 0 0 
6242 1249 1 -3.6039 80.4623 0 0 0 
6243 1249 1 -5.03139 80.9297 0 0 0 
6476 1296 1 -6.19717 82.0702 0 1 0 
6241 1249 1 -2.70744 81.6501 0 0 0 
6244 1249 1 -5.01684 82.4329 0 0 0 
6001 1201 1 -6.72034 78.761 0 0 0 
6010 1202 1 -2.3762 80.4301 0 0 0 
6009 1202 1 -0.959452 79.9923 0 0 0 
6011 1203 1 0.313292 79.0058 0 0 0 
6015 1203 1 1.13926 80.2793 0 0 0 
6246 1250 1 0.843071 82.0978 0 0 0 
6247 1250 1 0.00769457 80.8425 0 0 0 
6248 1250 1 -1.45073 81.2194 0 0 0 
6014 1203 1 2.58957 79.8812 0 0 0 
6016 1204 1 3.77515 79.2865 0 0 0 
6020 1204 1 4.6687 80.4823 0 0 0 
6252 1251 1 4.35748 81.9262 0 0 0 
6253 1251 1 3.54582 80.6529 0 0 0 
6254 1251 1 2.09831 81.0396 0 0 0 
6258 1252 1 5.59074 81.2647 0 0 0 
6255 1251 1 1.99217 82.5285 0 0 0 
6018 1204 1 6.06898 78.5061 0 0 0 
6019 1204 1 6.08805 80.0098 0 0 0 
6021 1205 1 7.22844 78.94 0 0 0 
6024 1205 1 9.48007 79.8563 0 0 0 
6025 1205 1 8.01933 80.2222 0 0 0 
6256 1252 1 7.854 82.1536 0 0 0 
6257 1252 1 7.03979 80.8875 0 0 0 
6263 1253 1 9.02902 81.0945 0 0 0 
6264 1253 1 9.05642 82.5667 0 0 0 
6031 1207 1 14.3679 78.8853 0 0 0 
6028 1206 1 13.0328 78.5315 0 0 0 
6026 1206 1 10.7252 79.3087 0 0 0 
6029 1206 1 13.0465 80.0354 0 0 0 
6030 1206 1 11.627 80.5176 0 0 0 
6261 1253 1 11.3442 81.788 0 0 0 
6262 1253 1 10.449 80.5924 0 0 0 
6268 1254 1 12.5878 81.3184 0 0 0 
6267 1254 1 13.996 80.8493 0 0 0 
6722 1345 1 -3.64867 86.0957 0 0 0 
6245 1249 1 -3.57554 82.8935 0 0 0 
6482 1297 1 -6.07248 83.3676 0 0 0 
6483 1297 1 -4.6081 83.7269 0 0 0 
6484 1297 1 -4.49985 85.218 0 0 0 
6485 1297 1 -5.90693 85.7923 0 0 0 
6486 1298 1 -3.3766 84.7862 0 0 0 
6723 1345 1 -5.06401 86.6068 0 0 0 
6487 1298 1 -2.54704 83.545 0 0 0 
6249 1250 1 -1.51471 82.7271 0 0 0 
6727 1346 1 -0.133982 86.2966 0 0 0 
6250 1250 1 -0.122304 83.2516 0 0 0 
6488 1298 1 -1.1073 83.9458 0 0 0 
6489 1298 1 -1.04446 85.4555 0 0 0 
6490 1298 1 -2.45629 85.9739 0 0 0 
6491 1299 1 0.142965 84.6424 0 0 0 
6492 1299 1 1.03223 83.4366 0 0 0 
6495 1299 1 1.00354 85.8696 0 0 0 
6259 1252 1 5.50825 82.7685 0 0 0 
6496 1300 1 3.67473 84.8718 0 0 0 
6497 1300 1 4.50986 83.6046 0 0 0 
6500 1300 1 4.61396 86.0382 0 0 0 
6732 1347 1 3.43376 86.18 0 0 0 
6251 1251 1 3.39613 83.0903 0 0 0 
6493 1299 1 2.4463 83.9185 0 0 0 
6494 1299 1 2.44811 85.4144 0 0 0 
6498 1300 1 5.96147 83.993 0 0 0 
6499 1300 1 6.02366 85.4983 0 0 0 
6501 1301 1 7.25377 84.5074 0 0 0 
6502 1301 1 8.14033 83.2972 0 0 0 
6503 1301 1 9.5476 83.7403 0 0 0 
6504 1301 1 9.57758 85.2533 0 0 0 
6505 1301 1 8.15183 85.7211 0 0 0 
6737 1348 1 7.04021 86.2704 0 0 0 
6260 1252 1 6.91424 83.3036 0 0 0 
6743 1349 1 9.09092 86.672 0 0 0 
6269 1254 1 12.5912 82.8056 0 0 0 
6506 1302 1 11.6572 86.02 0 0 0 
6507 1302 1 10.7636 84.8297 0 0 0 
6508 1302 1 11.6337 83.5968 0 0 0 
6509 1302 1 13.0586 84.0392 0 0 0 
6510 1302 1 13.0717 85.5371 0 0 0 
6742 1349 1 10.492 86.08 0 0 0 
6265 1253 1 10.4889 83.0039 0 0 0 
6270 1254 1 14.0135 83.2592 0 0 0 
6747 1350 1 14.0562 86.2441 0 0 0 
6511 1303 1 14.4242 84.5165 0 0 0 
6724 1345 1 -5.01762 88.1006 0 0 0 
6725 1345 1 -3.57751 88.5006 0 0 0 
6956 1392 1 -6.21612 87.5416 0 1 0 
6962 1393 1 -5.99292 88.8003 0 0 0 
6963 1393 1 -4.56452 89.2772 0 0 0 
6966 1394 1 -3.31771 90.2843 0 0 0 
6721 1345 1 -2.72906 87.2824 0 0 0 
6964 1393 1 -4.5673 90.7718 0 0 0 
6728 1346 1 -1.58313 86.7604 0 0 0 
6726 1346 1 0.751651 87.5233 0 0 0 
6729 1346 1 -1.56418 88.2931 0 0 0 
6730 1346 1 -0.121541 88.7432 0 0 0 
6967 1394 1 -2.47479 89.0467 0 0 0 
6968 1394 1 -1.03785 89.4816 0 0 0 
6971 1395 1 0.250637 90.1143 0 0 0 
6972 1395 1 1.11364 88.9217 0 0 0 
6733 1347 1 2.03872 86.7116 0 0 0 
6738 1348 1 5.60363 86.7443 0 0 0 
6731 1347 1 4.38674 87.3626 0 0 0 
6734 1347 1 2.1314 88.2094 0 0 0 
6735 1347 1 3.58067 88.6066 0 0 0 
6739 1348 1 5.60243 88.2412 0 0 0 
6973 1395 1 2.55468 89.3657 0 0 0 
6976 1396 1 3.89846 90.307 0 0 0 
6977 1396 1 4.7457 89.083 0 0 0 