ITEM: TIMESTEP
2000
ITEM: NUMBER OF ATOMS
2496
ITEM: BOX BOUNDS pp pp pp
-6.69134 162.891
8.95826 152.142
-0.2 0.2
ITEM: ATOMS id mol type x y z
1 1 1 -3.80067 10.4224 0
2 2 1 -0.323413 10.5175 0
3 3 1 3.26382 10.1692 0
4 4 1 6.85011 10.3789 0
5 5 1 10.4069 10.1548 0
6 6 1 13.9138 10.5891 0
7 7 1 17.3147 10.3044 0
8 8 1 20.9662 10.4591 0
9 9 1 24.4946 10.1869 0
10 10 1 27.9802 10.4057 0
11 11 1 31.5295 10.115 0
12 12 1 35.0334 10.3189 0
13 13 1 38.6961 10.5242 0
14 14 1 42.2096 10.2781 0
15 15 1 45.6838 10.5683 0
16 16 1 49.2046 10.258 0
17 17 1 52.6961 10.5931 0
18 18 1 56.1907 10.3464 0
19 19 1 59.7533 10.5863 0
20 20 1 63.3479 10.438 0
21 21 1 66.9209 10.5452 0
22 22 1 70.3203 10.2842 0
23 23 1 73.7718 10.6247 0
24 24 1 77.363 10.4166 0
25 25 1 81.0355 10.5337 0
26 26 1 84.5357 10.4808 0
27 27 1 88.1394 10.6793 0
28 28 1 91.6478 10.4442 0
29 29 1 95.2267 10.593 0
30 30 1 98.6426 10.2318 0
31 31 1 102.157 10.502 0
32 32 1 105.697 10.2564 0
33 33 1 109.165 9.99483 0
34 34 1 112.709 10.2089 0
35 35 1 116.252 10.0477 0
36 36 1 119.891 10.2473 0
37 37 1 123.322 10.4881 0
38 38 1 126.809 10.1894 0
39 39 1 130.351 10.0404 0
40 40 1 133.928 10.2048 0
41 41 1 137.5 10.3889 0
42 42 1 141.07 10.5217 0
43 43 1 144.643 10.183 0
44 44 1 148.214 10.3857 0
45 45 1 151.78 10.1778 0
46 46 1 155.29 10.295 0
47 47 1 158.836 10.3987 0
48 48 1 162.283 10.5793 0
49 49 1 -5.38536 13.1349 0
50 50 1 -1.84822 13.3644 0
51 51 1 1.61791 12.9971 0
52 52 1 5.14471 13.0642 0
53 53 1 8.74285 12.9684 0
54 54 1 12.2712 13.306 0
55 55 1 15.7942 13.1523 0
56 56 1 19.3585 13.2639 0
57 57 1 22.8127 12.9699 0
58 58 1 26.3562 13.1817 0
59 59 1 29.8806 12.8438 0
60 60 1 33.4058 13.083 0
61 61 1 36.9676 13.198 0
62 62 1 40.5358 13.0669 0
63 63 1 44.0748 13.3153 0
64 64 1 47.6242 13.1067 0
65 65 1 51.1613 13.3823 0
66 66 1 54.6571 13.0871 0
67 67 1 58.2112 13.3369 0
68 68 1 61.687 13.0665 0
69 69 1 65.333 13.2812 0
70 70 1 68.7744 13.1409 0
71 71 1 72.2087 13.4211 0
72 72 1 75.7906 13.1689 0
73 73 1 79.3388 13.31 0
74 74 1 82.959 13.2274 0
75 75 1 86.5908 13.4714 0
76 76 1 90.0781 13.1335 0
77 77 1 93.6844 13.3167 0
78 78 1 97.221 13.1067 0
79 79 1 100.662 13.3556 0
80 80 1 104.07 13.0125 0
81 81 1 107.589 12.7467 0
82 82 1 111.143 13.009 0
83 83 1 114.662 12.7774 0
84 84 1 118.226 12.9449 0
85 85 1 121.743 13.2625 0
86 86 1 125.239 13.0748 0
87 87 1 128.773 12.7441 0
88 88 1 132.315 12.9129 0
89 89 1 135.843 13.0506 0
90 90 1 139.487 13.2034 0
91 91 1 143.135 12.9412 0
92 92 1 146.741 13.1914 0
93 93 1 150.196 12.8959 0
94 94 1 153.78 13.1716 0
95 95 1 157.158 13.0144 0
96 96 1 160.613 13.3158 0
97 97 1 -3.77674 15.9395 0
98 98 1 -0.234916 16.093 0
99 99 1 3.24806 15.7837 0
100 100 1 6.69343 15.8788 0
101 101 1 10.2716 15.8107 0
102 102 1 13.8941 16.0706 0
103 103 1 17.4397 15.8907 0
104 104 1 20.9357 16.0686 0
105 105 1 24.4456 15.7095 0
106 106 1 27.9444 15.9129 0
107 107 1 31.4832 15.5728 0
108 108 1 34.9902 15.8198 0
109 109 1 38.5882 15.9767 0
110 110 1 42.1174 15.7533 0
111 111 1 45.7 16.109 0
112 112 1 49.2736 15.8203 0
113 113 1 52.7622 16.0874 0
114 114 1 56.2715 15.7645 0
115 115 1 59.8057 16.0866 0
116 116 1 63.3225 15.8186 0
117 117 1 66.8766 16.1087 0
118 118 1 70.3432 15.8916 0
119 119 1 73.8594 16.0149 0
120 120 1 77.4933 15.8188 0
121 121 1 80.9957 16.0645 0
122 122 1 84.5834 15.9183 0
123 123 1 88.2374 16.1581 0
124 124 1 91.7291 15.7787 0
125 125 1 95.2331 16.1705 0
126 126 1 98.7685 15.8876 0
127 127 1 102.236 16.1434 0
128 128 1 105.738 15.775 0
129 129 1 109.21 15.4766 0
130 130 1 112.811 15.6935 0
131 131 1 116.253 15.5055 0
132 132 1 119.751 15.7546 0
133 133 1 123.344 15.9308 0
134 134 1 126.903 15.8785 0
135 135 1 130.512 15.4983 0
136 136 1 133.978 15.6933 0
137 137 1 137.561 15.6546 0
138 138 1 141.149 15.8699 0
139 139 1 144.763 15.6519 0
140 140 1 148.242 15.9965 0
141 141 1 151.705 15.6935 0
142 142 1 155.264 16.152 0
143 143 1 158.689 15.8506 0
144 144 1 162.188 16.0722 0
145 145 1 -5.39904 18.554 0
146 146 1 -1.83525 18.8603 0
147 147 1 1.75316 18.5837 0
148 148 1 5.22423 18.8273 0
149 149 1 8.67264 18.6138 0
150 150 1 12.2591 18.7689 0
151 151 1 15.8277 18.6086 0
152 152 1 19.383 18.8572 0
153 153 1 22.8393 18.5979 0
154 154 1 26.4153 18.7518 0
155 155 1 29.9441 18.3931 0
156 156 1 33.3933 18.5856 0
157 157 1 37.007 18.6811 0
158 158 1 40.5446 18.5449 0
159 159 1 44.1324 18.7976 0
160 160 1 47.6141 18.5663 0
161 161 1 51.1022 18.8588 0
162 162 1 54.6427 18.5494 0
163 163 1 58.2046 18.8045 0
164 164 1 61.7151 18.5829 0
165 165 1 65.0962 18.7443 0
166 166 1 68.7187 18.6631 0
167 167 1 72.3384 18.8736 0
168 168 1 75.8197 18.5363 0
169 169 1 79.416 18.8878 0
170 170 1 82.9548 18.5465 0
171 171 1 86.5618 18.8787 0
172 172 1 90.1198 18.5975 0
173 173 1 93.6496 18.8748 0
174 174 1 97.1626 18.6828 0
175 175 1 100.599 18.9402 0
176 176 1 104.191 18.5695 0
177 177 1 107.687 18.3415 0
178 178 1 111.238 18.46 0
179 179 1 114.71 18.3219 0
180 180 1 118.206 18.5522 0
181 181 1 121.788 18.7325 0
182 182 1 125.307 18.5722 0
183 183 1 128.919 18.3572 0
184 184 1 132.474 18.5627 0
185 185 1 135.881 18.3285 0
186 186 1 139.494 18.6412 0
187 187 1 143.082 18.4455 0
188 188 1 146.598 18.6863 0
189 189 1 150.13 18.5001 0
190 190 1 153.562 18.7677 0
191 191 1 157.151 18.6187 0
192 192 1 160.7 18.8945 0
193 193 1 -3.73871 21.3787 0
194 194 1 -0.176354 21.6234 0
195 195 1 3.30545 21.3252 0
196 196 1 6.80735 21.558 0
197 197 1 10.3469 21.3615 0
198 198 1 13.8581 21.5615 0
199 199 1 17.4735 21.3774 0
200 200 1 21.0161 21.6175 0
201 201 1 24.4985 21.296 0
202 202 1 28.0408 21.4749 0
203 203 1 31.4692 21.3316 0
204 204 1 35.0667 21.166 0
205 205 1 38.6193 21.4087 0
206 206 1 42.086 21.2712 0
207 207 1 45.6293 21.5663 0
208 208 1 49.1361 21.3384 0
209 209 1 52.6638 21.5719 0
210 210 1 56.2824 21.319 0
211 211 1 59.7891 21.5678 0
212 212 1 63.2544 21.5669 0
213 213 1 66.6748 21.4888 0
214 214 1 70.3226 21.3501 0
215 215 1 73.916 21.6076 0
216 216 1 77.4296 21.3365 0
217 217 1 80.9659 21.5769 0
218 218 1 84.5624 21.3866 0
219 219 1 88.1244 21.6128 0
220 220 1 91.6527 21.3296 0
221 221 1 95.1678 21.6785 0
222 222 1 98.7174 21.4436 0
223 223 1 102.196 21.6955 0
224 224 1 105.77 21.332 0
225 225 1 109.344 21.0564 0
226 226 1 112.845 21.2988 0
227 227 1 116.307 21.0233 0
228 228 1 119.823 21.4285 0
229 229 1 123.43 21.3618 0
230 230 1 127.059 21.2047 0
231 231 1 130.558 21.0482 0
232 232 1 134.014 21.4439 0
233 233 1 137.499 21.1727 0
234 234 1 141.111 21.3616 0
235 235 1 144.625 21.221 0
236 236 1 148.165 21.4457 0
237 237 1 151.66 21.2265 0
238 238 1 155.183 21.5431 0
239 239 1 158.772 21.356 0
240 240 1 162.341 21.6682 0
241 241 1 -5.35819 24.1209 0
242 242 1 -1.76073 24.4509 0
243 243 1 1.79007 24.1131 0
244 244 1 5.26206 24.3917 0
245 245 1 8.74468 24.1376 0
246 246 1 12.3031 24.3352 0
247 247 1 15.8601 24.0856 0
248 248 1 19.4257 24.3875 0
249 249 1 22.9129 24.1011 0
250 250 1 26.506 24.2558 0
251 251 1 29.945 24.0882 0
252 252 1 33.4644 23.8809 0
253 253 1 36.9673 24.0368 0
254 254 1 40.5013 24.053 0
255 255 1 43.981 24.261 0
256 256 1 47.5526 24.0584 0
257 257 1 51.0689 24.2822 0
258 258 1 54.6218 24.0523 0
259 259 1 58.1312 24.2378 0
260 260 1 61.6975 24.2879 0
261 261 1 65.242 24.4421 0
262 262 1 68.721 24.0343 0
263 263 1 72.2357 24.3048 0
264 264 1 75.821 24.1335 0
265 265 1 79.3475 24.3004 0
266 266 1 82.8525 24.0319 0
267 267 1 86.4275 24.2648 0
268 268 1 90.0176 24.0901 0
269 269 1 93.5936 24.3921 0
270 270 1 97.1087 24.1588 0
271 271 1 100.583 24.4048 0
272 272 1 104.196 24.158 0
273 273 1 107.73 23.7555 0
274 274 1 111.248 24.007 0
275 275 1 114.716 23.8277 0
276 276 1 118.151 24.1101 0
277 277 1 121.725 23.9869 0
278 278 1 125.383 23.9421 0
279 279 1 128.95 23.8176 0
280 280 1 132.394 24.1881 0
281 281 1 135.958 23.897 0
282 282 1 139.476 24.0608 0
283 283 1 143.025 23.9498 0
284 284 1 146.475 24.1342 0
285 285 1 150.033 23.9914 0
286 286 1 153.609 24.3274 0
287 287 1 157.09 24.1062 0
288 288 1 160.681 24.3447 0
289 289 1 -3.71987 26.8833 0
290 290 1 -0.172046 27.0978 0
291 291 1 3.40669 26.8931 0
292 292 1 6.88314 27.1495 0
293 293 1 10.3539 26.8371 0
294 294 1 14.0098 27.0802 0
295 295 1 17.4337 26.8662 0
296 296 1 21.0117 27.1059 0
297 297 1 24.504 26.7595 0
298 298 1 28.0128 27.123 0
299 299 1 31.5683 26.9021 0
300 300 1 35.0896 26.7245 0
301 301 1 38.5917 26.7183 0
302 302 1 42.0937 26.8776 0
303 303 1 45.594 27.0299 0
304 304 1 49.1604 26.8239 0
305 305 1 52.7114 26.9876 0
306 306 1 56.168 26.7852 0
307 307 1 59.7313 26.9352 0
308 308 1 63.3596 26.9094 0
309 309 1 66.8812 27.0836 0
310 310 1 70.3775 26.8136 0
311 311 1 73.8391 27.0505 0
312 312 1 77.4735 26.8191 0
313 313 1 80.9377 27.0027 0
314 314 1 84.5011 26.7618 0
315 315 1 88.0432 27.0537 0
316 316 1 91.5583 26.8406 0
317 317 1 95.1843 27.1142 0
318 318 1 98.693 26.9442 0
319 319 1 102.214 27.0979 0
320 320 1 105.851 26.857 0
321 321 1 109.323 26.5601 0
322 322 1 112.779 26.7831 0
323 323 1 116.257 26.5912 0
324 324 1 119.76 26.8443 0
325 325 1 123.375 26.6459 0
326 326 1 126.913 26.6903 0
327 327 1 130.468 26.7043 0
328 328 1 134.074 26.871 0
329 329 1 137.528 26.581 0
330 330 1 141.015 26.9162 0
331 331 1 144.51 26.7188 0
332 332 1 148.028 26.9017 0
333 333 1 151.532 26.7819 0
334 334 1 155.089 27.1764 0
335 335 1 158.648 26.9043 0
336 336 1 162.307 27.0709 0
337 337 1 -5.46329 29.5614 0
338 338 1 -1.83076 29.826 0
339 339 1 1.7934 29.6699 0
340 340 1 5.35684 29.9471 0
341 341 1 8.87915 29.6687 0
342 342 1 12.4254 29.878 0
343 343 1 15.8727 29.6067 0
344 344 1 19.4228 29.8329 0
345 345 1 22.9363 29.6204 0
346 346 1 26.3978 29.8121 0
347 347 1 29.9893 29.6716 0
348 348 1 33.5183 29.4979 0
349 349 1 37.0768 29.6077 0
350 350 1 40.5517 29.5808 0
351 351 1 44.0785 29.7839 0
352 352 1 47.5944 29.536 0
353 353 1 51.1095 29.7337 0
354 354 1 54.6615 29.5704 0
355 355 1 58.1935 29.6982 0
356 356 1 61.7318 29.6191 0
357 357 1 65.2892 29.8585 0
358 358 1 68.819 29.5772 0
359 359 1 72.3042 29.8064 0
360 360 1 75.7976 29.4909 0
361 361 1 79.3352 29.8028 0
362 362 1 82.8978 29.5876 0
363 363 1 86.4501 29.7457 0
364 364 1 89.9362 29.5756 0
365 365 1 93.5226 29.8379 0
366 366 1 97.026 29.6183 0
367 367 1 100.598 29.8852 0
368 368 1 104.213 29.5217 0
369 369 1 107.706 29.3237 0
370 370 1 111.143 29.7537 0
371 371 1 114.668 29.4442 0
372 372 1 118.193 29.5948 0
373 373 1 121.659 29.3424 0
374 374 1 125.327 29.5633 0
375 375 1 128.829 29.4006 0
376 376 1 132.433 29.5836 0
377 377 1 135.98 29.3822 0
378 378 1 139.348 29.6692 0
379 379 1 142.838 29.4362 0
380 380 1 146.428 29.7157 0
381 381 1 149.908 29.5703 0
382 382 1 153.433 29.8157 0
383 383 1 156.992 29.622 0
384 384 1 160.593 29.8116 0
385 385 1 -3.83328 32.2668 0
386 386 1 -0.207228 32.6067 0
387 387 1 3.40916 32.4382 0
388 388 1 6.94817 32.6259 0
389 389 1 10.4911 32.4258 0
390 390 1 13.9704 32.7084 0
391 391 1 17.4522 32.3538 0
392 392 1 20.9754 32.6239 0
393 393 1 24.5424 32.3616 0
394 394 1 28.1092 32.554 0
395 395 1 31.5998 32.353 0
396 396 1 35.1239 32.1765 0
397 397 1 38.6717 32.354 0
398 398 1 42.1895 32.2544 0
399 399 1 45.6645 32.4956 0
400 400 1 49.1511 32.2759 0
401 401 1 52.6977 32.4486 0
402 402 1 56.3138 32.2465 0
403 403 1 59.7535 32.4482 0
404 404 1 63.308 32.3397 0
405 405 1 66.8782 32.5248 0
406 406 1 70.3503 32.3585 0
407 407 1 73.9191 32.5635 0
408 408 1 77.3851 32.2935 0
409 409 1 80.9305 32.544 0
410 410 1 84.4409 32.3824 0
411 411 1 87.9418 32.6478 0
412 412 1 91.5319 32.3592 0
413 413 1 95.0277 32.6249 0
414 414 1 98.5988 32.342 0
415 415 1 102.15 32.6258 0
416 416 1 105.708 32.3514 0
417 417 1 109.157 32.2264 0
418 418 1 112.774 32.4076 0
419 419 1 116.293 32.1414 0
420 420 1 119.778 32.4052 0
421 421 1 123.296 32.1463 0
422 422 1 126.869 32.3347 0
423 423 1 130.455 32.1524 0
424 424 1 133.902 32.3909 0
425 425 1 137.37 32.2151 0
426 426 1 140.919 32.5223 0
427 427 1 144.427 32.1629 0
428 428 1 147.985 32.4744 0
429 429 1 151.501 32.3034 0
430 430 1 155.108 32.4617 0
431 431 1 158.68 32.2611 0
432 432 1 162.193 32.4769 0
433 433 1 -5.45022 34.9477 0
434 434 1 -1.96008 35.255 0
435 435 1 1.6423 35.1386 0
436 436 1 5.29107 35.2687 0
437 437 1 8.86429 35.0987 0
438 438 1 12.3665 35.3551 0
439 439 1 15.9005 35.1495 0
440 440 1 19.304 35.2525 0
441 441 1 22.8634 35.1287 0
442 442 1 26.369 35.1292 0
443 443 1 29.9535 35.1629 0
444 444 1 33.5299 34.8939 0
445 445 1 37.0337 35.0923 0
446 446 1 40.4833 34.9496 0
447 447 1 44.0618 35.2577 0
448 448 1 47.5484 34.9877 0
449 449 1 51.1848 35.179 0
450 450 1 54.6744 34.8968 0
451 451 1 58.1994 35.2634 0
452 452 1 61.712 35.0193 0
453 453 1 65.2926 35.1326 0
454 454 1 68.7585 35.0566 0
455 455 1 72.2914 35.3094 0
456 456 1 75.7666 35.0613 0
457 457 1 79.2846 35.239 0
458 458 1 82.7861 35.1204 0
459 459 1 86.3274 35.4122 0
460 460 1 89.878 35.0823 0
461 461 1 93.4764 35.317 0
462 462 1 97.0082 35.0406 0
463 463 1 100.522 35.4016 0
464 464 1 104.073 35.1643 0
465 465 1 107.594 34.9321 0
466 466 1 111.137 35.0387 0
467 467 1 114.727 34.9471 0
468 468 1 118.218 35.1913 0
469 469 1 121.726 34.8983 0
470 470 1 125.214 35.0534 0
471 471 1 128.769 34.8324 0
472 472 1 132.331 35.1849 0
473 473 1 135.724 34.9443 0
474 474 1 139.368 35.2664 0
475 475 1 142.894 35.0533 0
476 476 1 146.302 35.1934 0
477 477 1 149.945 35.0529 0
478 478 1 153.539 35.3391 0
479 479 1 157.107 34.977 0
480 480 1 160.578 35.161 0
481 481 1 -3.88637 37.7814 0
482 482 1 -0.370867 38.0251 0
483 483 1 3.26598 37.8514 0
484 484 1 6.73725 38.1303 0
485 485 1 10.3578 37.8455 0
486 486 1 13.9118 38.1569 0
487 487 1 17.3394 38.0856 0
488 488 1 20.844 38.0481 0
489 489 1 24.3886 37.8181 0
490 490 1 27.9578 37.9732 0
491 491 1 31.5655 37.8957 0
492 492 1 35.1318 37.5918 0
493 493 1 38.6052 37.9114 0
494 494 1 42.0516 37.6873 0
495 495 1 45.6625 38.0129 0
496 496 1 49.2639 37.746 0
497 497 1 52.7874 37.9506 0
498 498 1 56.2263 37.7437 0
499 499 1 59.7809 38.0465 0
500 500 1 63.3141 37.6943 0
501 501 1 66.8126 37.9992 0
502 502 1 70.3368 37.827 0
503 503 1 73.8495 38.085 0
504 504 1 77.3914 37.8878 0
505 505 1 80.8192 38.0804 0
506 506 1 84.4112 37.8598 0
507 507 1 87.9757 38.0597 0
508 508 1 91.5491 37.7931 0
509 509 1 95.0797 38.1448 0
510 510 1 98.5403 37.8592 0
511 511 1 102.06 38.1878 0
512 512 1 105.697 37.907 0
513 513 1 109.298 37.6147 0
514 514 1 112.777 37.7319 0
515 515 1 116.336 37.7167 0
516 516 1 119.913 37.8364 0
517 517 1 123.422 37.6221 0
518 518 1 126.824 37.846 0
519 519 1 130.285 37.6361 0
520 520 1 133.784 38.0456 0
521 521 1 137.312 37.7103 0
522 522 1 140.933 38.0059 0
523 523 1 144.411 37.7306 0
524 524 1 147.973 37.9753 0
525 525 1 151.582 37.772 0
526 526 1 155.15 38.0621 0
527 527 1 158.699 37.7112 0
528 528 1 162.183 37.8935 0
529 529 1 -5.44079 40.5875 0
530 530 1 -1.96958 40.8116 0
531 531 1 1.65996 40.6433 0
532 532 1 5.19703 40.8957 0
533 533 1 8.70676 40.5448 0
534 534 1 12.1441 40.7378 0
535 535 1 15.7352 40.8345 0
536 536 1 19.2248 40.7915 0
537 537 1 22.8421 40.5296 0
538 538 1 26.3912 40.7267 0
539 539 1 29.9555 40.7064 0
540 540 1 33.5547 40.3356 0
541 541 1 36.9768 40.6196 0
542 542 1 40.4881 40.4981 0
543 543 1 43.9961 40.7104 0
544 544 1 47.6262 40.4898 0
545 545 1 51.1791 40.6422 0
546 546 1 54.6458 40.5558 0
547 547 1 58.1599 40.7016 0
548 548 1 61.8012 40.5219 0
549 549 1 65.2964 40.7648 0
550 550 1 68.7384 40.5702 0
551 551 1 72.2257 40.8523 0
552 552 1 75.7651 40.6672 0
553 553 1 79.3996 40.873 0
554 554 1 82.8696 40.6204 0
555 555 1 86.4146 40.8151 0
556 556 1 89.8955 40.5013 0
557 557 1 93.4125 40.898 0
558 558 1 96.9761 40.7048 0
559 559 1 100.488 40.9255 0
560 560 1 104.158 40.5943 0
561 561 1 107.666 40.3726 0
562 562 1 111.295 40.5754 0
563 563 1 114.699 40.3787 0
564 564 1 118.333 40.5889 0
565 565 1 121.868 40.4547 0
566 566 1 125.294 40.7337 0
567 567 1 128.749 40.4404 0
568 568 1 132.179 40.7506 0
569 569 1 135.762 40.6085 0
570 570 1 139.207 40.6653 0
571 571 1 142.95 40.6112 0
572 572 1 146.405 40.7094 0
573 573 1 149.967 40.4423 0
574 574 1 153.493 40.7803 0
575 575 1 157.142 40.5941 0
576 576 1 160.628 40.7671 0
577 577 1 -3.86309 43.383 0
578 578 1 -0.339366 43.439 0
579 579 1 3.22448 43.3583 0
580 580 1 6.77922 43.6197 0
581 581 1 10.2653 43.4679 0
582 582 1 13.7979 43.4159 0
583 583 1 17.2406 43.6007 0
584 584 1 20.872 43.4679 0
585 585 1 24.4545 43.2579 0
586 586 1 27.9932 43.4682 0
587 587 1 31.6707 43.3634 0
588 588 1 34.9988 43.3221 0
589 589 1 38.5494 43.4499 0
590 590 1 42.1245 43.2078 0
591 591 1 45.6936 43.3664 0
592 592 1 49.2391 43.1741 0
593 593 1 52.7639 43.509 0
594 594 1 56.2926 43.2727 0
595 595 1 59.8134 43.4553 0
596 596 1 63.4027 43.3005 0
597 597 1 66.8536 43.5528 0
598 598 1 70.29 43.3552 0
599 599 1 73.8123 43.6416 0
600 600 1 77.4072 43.3951 0
601 601 1 80.9618 43.5931 0
602 602 1 84.4503 43.3837 0
603 603 1 87.9802 43.5293 0
604 604 1 91.4987 43.3938 0
605 605 1 94.9644 43.6331 0
606 606 1 98.569 43.4566 0
607 607 1 102.178 43.6296 0
608 608 1 105.816 43.4509 0
609 609 1 109.341 43.0854 0
610 610 1 112.829 43.3366 0
611 611 1 116.329 43.0468 0
612 612 1 119.879 43.4255 0
613 613 1 123.393 43.1986 0
614 614 1 126.877 43.5679 0
615 615 1 130.321 43.3149 0
616 616 1 133.811 43.4695 0
617 617 1 137.338 43.3142 0
618 618 1 140.957 43.3646 0
619 619 1 144.563 43.2682 0
620 620 1 148.077 43.4326 0
621 621 1 151.589 43.2297 0
622 622 1 155.132 43.4728 0
623 623 1 158.705 43.3401 0
624 624 1 162.181 43.5628 0
625 625 1 -5.49422 46.1084 0
626 626 1 -1.85648 46.3083 0
627 627 1 1.58014 46.1043 0
628 628 1 5.14876 46.3012 0
629 629 1 8.63017 46.1946 0
630 630 1 12.225 46.3105 0
631 631 1 15.6146 46.3713 0
632 632 1 19.1333 46.1473 0
633 633 1 22.7946 45.9463 0
634 634 1 26.4508 46.2792 0
635 635 1 29.847 46.0269 0
636 636 1 33.5447 46.2683 0
637 637 1 37.0494 46.222 0
638 638 1 40.6028 45.9362 0
639 639 1 44.0602 46.1568 0
640 640 1 47.6362 45.9471 0
641 641 1 51.1675 46.238 0
642 642 1 54.6287 46.0082 0
643 643 1 58.148 46.1538 0
644 644 1 61.8082 46.0356 0
645 645 1 65.3026 46.365 0
646 646 1 68.8144 46.1233 0
647 647 1 72.2343 46.3995 0
648 648 1 75.8234 46.1519 0
649 649 1 79.3271 46.4309 0
650 650 1 82.8291 46.092 0
651 651 1 86.3344 46.3265 0
652 652 1 89.8884 46.041 0
653 653 1 93.4025 46.3569 0
654 654 1 96.9211 46.0957 0
655 655 1 100.538 46.3122 0
656 656 1 104.185 46.0579 0
657 657 1 107.739 45.8942 0
658 658 1 111.249 46.1378 0
659 659 1 114.758 45.8536 0
660 660 1 118.229 46.11 0
661 661 1 121.816 45.8718 0
662 662 1 125.311 46.3159 0
663 663 1 128.824 46.1051 0
664 664 1 132.3 46.2489 0
665 665 1 135.804 45.9983 0
666 666 1 139.359 46.1449 0
667 667 1 142.861 45.9125 0
668 668 1 146.466 46.1832 0
669 669 1 149.987 45.9807 0
670 670 1 153.521 46.2334 0
671 671 1 156.971 46.0279 0
672 672 1 160.579 46.296 0
673 673 1 -3.85273 48.7519 0
674 674 1 -0.23249 49.0942 0
675 675 1 3.20307 48.8849 0
676 676 1 6.71377 49.1685 0
677 677 1 10.1665 48.9226 0
678 678 1 13.6422 49.1689 0
679 679 1 17.253 49.0654 0
680 680 1 20.8309 48.9139 0
681 681 1 24.4668 48.6944 0
682 682 1 27.9836 49.0573 0
683 683 1 31.4899 48.7563 0
684 684 1 35.0718 49.104 0
685 685 1 38.7068 48.8968 0
686 686 1 42.2078 48.729 0
687 687 1 45.7332 48.9228 0
688 688 1 49.2394 48.68 0
689 689 1 52.7556 49.0796 0
690 690 1 56.2382 48.7387 0
691 691 1 59.8007 48.8153 0
692 692 1 63.3601 48.7831 0
693 693 1 66.9506 49.1262 0
694 694 1 70.3912 48.9409 0
695 695 1 73.9771 49.1064 0
696 696 1 77.4159 48.9457 0
697 697 1 80.9775 49.1104 0
698 698 1 84.4059 48.8875 0
699 699 1 87.9049 49.0194 0
700 700 1 91.4484 48.8397 0
701 701 1 95.0478 49.0572 0
702 702 1 98.5406 48.8513 0
703 703 1 102.216 48.984 0
704 704 1 105.77 48.7764 0
705 705 1 109.327 48.5958 0
706 706 1 112.871 48.8572 0
707 707 1 116.339 48.6244 0
708 708 1 119.861 48.8134 0
709 709 1 123.29 48.7133 0
710 710 1 126.901 49.0333 0
711 711 1 130.365 48.8738 0
712 712 1 133.881 49.0528 0
713 713 1 137.35 48.801 0
714 714 1 140.892 48.9631 0
715 715 1 144.491 48.6698 0
716 716 1 147.983 48.9777 0
717 717 1 151.561 48.7266 0
718 718 1 155.071 49.1117 0
719 719 1 158.689 48.8261 0
720 720 1 162.231 49.0395 0
721 721 1 -5.40272 51.4643 0
722 722 1 -1.88274 51.9068 0
723 723 1 1.69573 51.6459 0
724 724 1 5.16894 51.9197 0
725 725 1 8.62628 51.7498 0
726 726 1 12.0864 51.9326 0
727 727 1 15.544 51.6886 0
728 728 1 19.2722 51.702 0
729 729 1 22.7585 51.446 0
730 730 1 26.3189 51.7685 0
731 731 1 29.8668 51.5297 0
732 732 1 33.4563 51.873 0
733 733 1 37.0349 51.5767 0
734 734 1 40.5591 51.4021 0
735 735 1 44.1595 51.6291 0
736 736 1 47.7278 51.4497 0
737 737 1 51.1703 51.7321 0
738 738 1 54.706 51.4743 0
739 739 1 58.283 51.6967 0
740 740 1 61.6876 51.4372 0
741 741 1 65.182 51.7998 0
742 742 1 68.8528 51.6725 0
743 743 1 72.3923 51.8218 0
744 744 1 75.9598 51.7149 0
745 745 1 79.4627 51.907 0
746 746 1 82.8705 51.6958 0
747 747 1 86.3607 51.8617 0
748 748 1 89.8733 51.6077 0
749 749 1 93.454 51.8168 0
750 750 1 97.022 51.5468 0
751 751 1 100.577 51.678 0
752 752 1 104.143 51.53 0
753 753 1 107.61 51.3099 0
754 754 1 111.181 51.53 0
755 755 1 114.715 51.392 0
756 756 1 118.234 51.551 0
757 757 1 121.679 51.539 0
758 758 1 125.237 51.679 0
759 759 1 128.764 51.5668 0
760 760 1 132.278 51.7639 0
761 761 1 135.853 51.6263 0
762 762 1 139.313 51.7245 0
763 763 1 142.932 51.4538 0
764 764 1 146.387 51.7203 0
765 765 1 149.934 51.4663 0
766 766 1 153.477 51.7332 0
767 767 1 157.112 51.5787 0
768 768 1 160.665 51.7451 0
769 769 1 -3.89461 54.3318 0
770 770 1 -0.280585 54.5614 0
771 771 1 3.21498 54.4778 0
772 772 1 6.6759 54.7421 0
773 773 1 10.2516 54.4653 0
774 774 1 13.662 54.6603 0
775 775 1 17.2205 54.3772 0
776 776 1 20.8165 54.4467 0
777 777 1 24.3282 54.1866 0
778 778 1 27.9436 54.5081 0
779 779 1 31.4146 54.2541 0
780 780 1 35.0294 54.547 0
781 781 1 38.552 54.3924 0
782 782 1 42.1278 54.1738 0
783 783 1 45.7207 54.3699 0
784 784 1 49.2268 54.246 0
785 785 1 52.783 54.3373 0
786 786 1 56.3572 54.2147 0
787 787 1 59.8309 54.6136 0
788 788 1 63.2925 54.2996 0
789 789 1 66.8173 54.4415 0
790 790 1 70.4204 54.3151 0
791 791 1 74.031 54.6647 0
792 792 1 77.531 54.4794 0
793 793 1 80.9999 54.7616 0
794 794 1 84.4847 54.4305 0
795 795 1 88.0532 54.6073 0
796 796 1 91.539 54.301 0
797 797 1 95.1511 54.5157 0
798 798 1 98.6308 54.2271 0
799 799 1 102.207 54.4881 0
800 800 1 105.671 54.2977 0
801 801 1 109.237 54.0625 0
802 802 1 112.726 54.3401 0
803 803 1 116.276 54.1255 0
804 804 1 119.744 54.3785 0
805 805 1 123.28 54.2554 0
806 806 1 126.812 54.3739 0
807 807 1 130.376 54.3022 0
808 808 1 133.876 54.4919 0
809 809 1 137.455 54.2954 0
810 810 1 141.055 54.4712 0
811 811 1 144.504 54.2756 0
812 812 1 148.001 54.5124 0
813 813 1 151.56 54.277 0
814 814 1 155.141 54.4465 0
815 815 1 158.717 54.3019 0
816 816 1 162.25 54.4697 0
817 817 1 -5.55033 57.1111 0
818 818 1 -1.98654 57.2191 0
819 819 1 1.57534 57.2919 0
820 820 1 5.08155 57.5058 0
821 821 1 8.64951 57.2496 0
822 822 1 12.2204 57.4699 0
823 823 1 15.7388 57.1107 0
824 824 1 19.2944 57.2271 0
825 825 1 22.7235 56.9062 0
826 826 1 26.3126 57.2602 0
827 827 1 29.8517 57.0061 0
828 828 1 33.382 57.2452 0
829 829 1 36.9726 57.0673 0
830 830 1 40.5534 56.8673 0
831 831 1 44.074 57.1284 0
832 832 1 47.5731 56.9083 0
833 833 1 51.2319 57.1313 0
834 834 1 54.7584 56.9987 0
835 835 1 58.231 57.3709 0
836 836 1 61.7987 57.0886 0
837 837 1 65.2921 57.2484 0
838 838 1 68.7463 56.9734 0
839 839 1 72.2031 57.2531 0
840 840 1 75.8736 57.2855 0
841 841 1 79.4136 57.4906 0
842 842 1 82.9175 57.3598 0
843 843 1 86.4465 57.3587 0
844 844 1 90.0308 57.0984 0
845 845 1 93.5037 57.2525 0
846 846 1 97.0489 57.0271 0
847 847 1 100.623 57.1691 0
848 848 1 104.055 56.9967 0
849 849 1 107.649 56.8046 0
850 850 1 111.128 57.1392 0
851 851 1 114.639 56.8928 0
852 852 1 118.152 57.1169 0
853 853 1 121.734 57.0307 0
854 854 1 125.279 57.1706 0
855 855 1 128.712 56.951 0
856 856 1 132.341 57.2399 0
857 857 1 135.879 57.112 0
858 858 1 139.394 57.1809 0
859 859 1 142.927 56.9677 0
860 860 1 146.383 57.2799 0
861 861 1 149.91 57.0205 0
862 862 1 153.534 57.1711 0
863 863 1 157.051 57.0282 0
864 864 1 160.64 57.2093 0
865 865 1 -3.91371 59.8288 0
866 866 1 -0.330845 59.8483 0
867 867 1 3.15751 60.0636 0
868 868 1 6.71475 60.1924 0
869 869 1 10.2829 59.9502 0
870 870 1 13.8779 60.1523 0
871 871 1 17.431 59.8389 0
872 872 1 20.8585 60.0379 0
873 873 1 24.3103 59.6725 0
874 874 1 27.9128 59.9869 0
875 875 1 31.4844 59.7537 0
876 876 1 34.9966 60.0525 0
877 877 1 38.6294 59.8003 0
878 878 1 42.15 59.6777 0
879 879 1 45.6589 59.8281 0
880 880 1 49.2661 59.599 0
881 881 1 52.7734 59.8915 0
882 882 1 56.291 59.8208 0
883 883 1 59.7904 60.0562 0
884 884 1 63.3562 59.7923 0
885 885 1 66.9053 60.0119 0
886 886 1 70.2996 59.8116 0
887 887 1 73.7676 60.0581 0
888 888 1 77.4242 60.0952 0
889 889 1 80.9395 60.2808 0
890 890 1 84.5057 60.0459 0
891 891 1 88.0924 60.047 0
892 892 1 91.6048 59.9328 0
893 893 1 95.0758 59.9042 0
894 894 1 98.6944 59.7863 0
895 895 1 102.157 60.0553 0
896 896 1 105.68 59.7433 0
897 897 1 109.185 59.6291 0
898 898 1 112.737 59.8859 0
899 899 1 116.229 59.6043 0
900 900 1 119.734 59.9265 0
901 901 1 123.29 59.6951 0
902 902 1 126.836 59.9516 0
903 903 1 130.338 59.642 0
904 904 1 133.971 59.9763 0
905 905 1 137.414 59.8817 0
906 906 1 140.929 59.8778 0
907 907 1 144.463 59.7955 0
908 908 1 148.093 59.9474 0
909 909 1 151.627 59.6585 0
910 910 1 155.049 59.9804 0
911 911 1 158.585 59.7739 0
912 912 1 162.139 60.2492 0
913 913 1 -5.47107 62.7137 0
914 914 1 -1.97053 62.5278 0
915 915 1 1.6079 62.8492 0
916 916 1 5.1499 62.9332 0
917 917 1 8.63429 62.7102 0
918 918 1 12.2982 62.9033 0
919 919 1 15.8475 62.6266 0
920 920 1 19.3315 62.8876 0
921 921 1 22.7995 62.5818 0
922 922 1 26.3589 62.6998 0
923 923 1 29.9299 62.4779 0
924 924 1 33.4694 62.7928 0
925 925 1 37.0585 62.5329 0
926 926 1 40.5418 62.4296 0
927 927 1 44.1508 62.6611 0
928 928 1 47.6288 62.3629 0
929 929 1 51.2013 62.7219 0
930 930 1 54.6791 62.5422 0
931 931 1 58.2089 62.7516 0
932 932 1 61.6884 62.4817 0
933 933 1 65.1981 62.7136 0
934 934 1 68.7087 62.6547 0
935 935 1 72.2123 62.8672 0
936 936 1 75.7611 62.8555 0
937 937 1 79.3293 63.0392 0
938 938 1 82.8861 62.8045 0
939 939 1 86.5113 62.8739 0
940 940 1 89.9735 62.7284 0
941 941 1 93.5907 62.8012 0
942 942 1 97.0007 62.4466 0
943 943 1 100.518 62.7676 0
944 944 1 104.103 62.546 0
945 945 1 107.538 62.3457 0
946 946 1 111.107 62.5895 0
947 947 1 114.654 62.4308 0
948 948 1 118.158 62.6735 0
949 949 1 121.639 62.4359 0
950 950 1 125.174 62.7257 0
951 951 1 128.703 62.4706 0
952 952 1 132.322 62.6194 0
953 953 1 135.847 62.7565 0
954 954 1 139.445 62.7302 0
955 955 1 142.833 62.4798 0
956 956 1 146.421 62.5505 0
957 957 1 150.048 62.3655 0
958 958 1 153.515 62.763 0
959 959 1 156.951 62.5393 0
960 960 1 160.484 62.9159 0
961 961 1 -3.92079 65.5177 0
962 962 1 -0.328468 65.3125 0
963 963 1 3.2302 65.5155 0
964 964 1 6.7561 65.6706 0
965 965 1 10.3378 65.4814 0
966 966 1 13.9149 65.6018 0
967 967 1 17.476 65.4034 0
968 968 1 20.9892 65.5864 0
969 969 1 24.5242 65.3124 0
970 970 1 28.0127 65.4168 0
971 971 1 31.4872 65.2463 0
972 972 1 35.061 65.5252 0
973 973 1 38.5857 65.3451 0
974 974 1 42.1996 65.0975 0
975 975 1 45.7341 65.5033 0
976 976 1 49.2792 65.231 0
977 977 1 52.7734 65.5646 0
978 978 1 56.2455 65.3134 0
979 979 1 59.7818 65.5483 0
980 980 1 63.2534 65.2419 0
981 981 1 66.7796 65.5647 0
982 982 1 70.2374 65.4355 0
983 983 1 73.8636 65.5521 0
984 984 1 77.4125 65.5355 0
985 985 1 81.0143 65.6823 0
986 986 1 84.5888 65.4553 0
987 987 1 88.1347 65.6156 0
988 988 1 91.7114 65.3212 0
989 989 1 95.1768 65.4836 0
990 990 1 98.6098 65.3452 0
991 991 1 102.133 65.524 0
992 992 1 105.605 65.3268 0
993 993 1 109.071 65.109 0
994 994 1 112.655 65.3074 0
995 995 1 116.195 65.1987 0
996 996 1 119.749 65.4789 0
997 997 1 123.289 65.1805 0
998 998 1 126.802 65.4423 0
999 999 1 130.438 65.1446 0
1000 1000 1 133.814 65.3922 0
1001 1001 1 137.454 65.4547 0
1002 1002 1 140.972 65.4937 0
1003 1003 1 144.515 65.0857 0
1004 1004 1 148.018 65.3477 0
1005 1005 1 151.499 65.2187 0
1006 1006 1 155.043 65.5516 0
1007 1007 1 158.558 65.3627 0
1008 1008 1 162.123 65.6629 0
1009 1009 1 -5.38466 68.3518 0
1010 1010 1 -1.86238 68.092 0
1011 1011 1 1.63188 68.3043 0
1012 1012 1 5.20251 68.4032 0
1013 1013 1 8.72465 68.1373 0
1014 1014 1 12.292 68.2618 0
1015 1015 1 15.8546 68.0846 0
1016 1016 1 19.4074 68.3143 0
1017 1017 1 22.9389 68.1078 0
1018 1018 1 26.5345 68.2882 0
1019 1019 1 29.9114 68.0617 0
1020 1020 1 33.3851 68.2107 0
1021 1021 1 37.0235 68.0871 0
1022 1022 1 40.4881 67.8682 0
1023 1023 1 44.0396 68.2071 0
1024 1024 1 47.6706 68.009 0
1025 1025 1 51.1673 68.2753 0
1026 1026 1 54.7132 68.1873 0
1027 1027 1 58.2119 68.4397 0
1028 1028 1 61.6644 68.0158 0
1029 1029 1 65.2211 68.3016 0
1030 1030 1 68.6589 68.225 0
1031 1031 1 72.1973 68.1831 0
1032 1032 1 75.8373 68.2887 0
1033 1033 1 79.4016 68.3286 0
1034 1034 1 82.9946 68.1748 0
1035 1035 1 86.5538 68.3527 0
1036 1036 1 90.1082 68.0436 0
1037 1037 1 93.6907 68.2941 0
1038 1038 1 97.1307 68.0783 0
1039 1039 1 100.643 68.3133 0