ITEM: TIMESTEP
6000
ITEM: NUMBER OF ATOMS
2496
ITEM: BOX BOUNDS pp pp pp
-6.6968100000000002e+00 1.6289699999999999e+02
8.8769500000000008e+00 1.5222300000000001e+02
-2.0000000000000001e-01 2.0000000000000001e-01
ITEM: ATOMS id c_1[1] c_1[2] 
1 0.906139 0.18221 
2 0.892726 -0.0836632 
3 0.90281 0.0560899 
4 0.885929 -0.0724903 
5 0.910006 0.0876237 
6 0.903805 -0.0264434 
289 0.892181 0.0129589 
290 0.913935 0.0420303 
291 0.892463 0.213828 
292 0.911181 0.103485 
293 0.946855 0.0249028 
294 0.951066 -0.0862169 
241 0.930866 0.0172541 
242 0.902318 0.142139 
243 0.878855 0.035937 
244 0.885755 0.12318 
245 0.935736 -0.0676929 
246 0.965313 0.0104472 
193 0.906542 0.232523 
194 0.892566 0.00188024 
195 0.932129 0.0342056 
196 0.926396 -0.191382 
197 0.886121 0.00839215 
198 0.894432 -0.0505566 
145 0.904645 0.144172 
146 0.906707 0.0639964 
147 0.888651 -0.0961161 
148 0.894054 -0.0296177 
149 0.897849 -0.183486 
150 0.926195 0.0875566 
97 0.937347 0.118462 
98 0.892211 -0.139147 
99 0.891266 0.00119623 
100 0.891941 -0.159773 
101 0.866338 0.0380875 
102 0.913043 0.101598 
49 0.937178 0.112107 
50 0.924578 0.039005 
51 0.914331 -0.128632 
52 0.906201 0.0252376 
53 0.885111 -0.0904991 
54 0.900571 0.180876 
673 0.93326 0.189 
337 0.925307 -0.111382 
338 0.955168 0.0368001 
674 0.901905 0.00400115 
339 0.925771 0.0444621 
675 0.887849 0.0900528 
340 0.90188 0.196703 
676 0.91911 -0.00519598 
341 0.933012 0.0182442 
677 0.923113 0.153104 
342 0.929183 0.0374746 
678 0.873212 -0.103632 
625 0.887438 -0.0603957 
626 0.926437 0.124846 
627 0.923855 0.0108678 
628 0.892421 0.108722 
629 0.863232 -0.04311 
630 0.90611 0.124763 
577 0.930848 0.0548836 
578 0.926257 -0.0955357 
579 0.905964 0.0894764 
580 0.871313 -0.117624 
581 0.872679 0.052269 
582 0.925921 -0.00230869 
529 0.8973 -0.0684693 
530 0.927298 0.0500384 
531 0.881178 -0.158622 
532 0.892122 0.0165461 
533 0.890225 -0.132796 
534 0.900629 0.0893689 
481 0.898991 0.0987909 
482 0.868585 -0.0641964 
483 0.851884 0.0407658 
484 0.876135 -0.101557 
485 0.899086 -0.00395758 
486 0.915034 -0.0418522 
433 0.901053 -0.0910956 
434 0.904678 0.0538381 
435 0.921192 -0.0559991 
436 0.885363 0.108892 
437 0.931355 -0.0966062 
438 0.926979 0.0558217 
385 0.94897 -0.00992531 
386 0.916609 -0.0756833 
387 0.901379 0.0951299 
388 0.914103 0.0233964 
389 0.924558 0.0835713 
390 0.919783 -0.0343543 
1010 0.903981 -0.238974 
1009 0.924434 -0.0259395 
1011 0.924504 0.0500627 
1012 0.908884 0.0804525 
1013 0.910097 -0.0456943 
1014 0.90374 0.0797699 
961 0.890108 -0.0211718 
962 0.92187 -0.0549125 
963 0.926565 0.136222 
964 0.916214 -0.120549 
965 0.893422 0.0430408 
966 0.907394 -0.0269581 
913 0.911155 0.100742 
914 0.933553 -0.0411777 
915 0.901891 0.0307155 
916 0.912563 0.0257451 
917 0.929305 -0.117688 
918 0.90701 0.066997 
865 0.918306 0.0460441 
866 0.916559 -0.121149 
867 0.940487 0.0056712 
868 0.938906 -0.0636438 
869 0.920442 0.0688472 
870 0.918536 -0.0654445 
817 0.904378 0.157064 
818 0.903176 -0.101751 
819 0.895599 -0.177563 
820 0.930188 -0.00559756 
821 0.922925 -0.0381157 
822 0.914497 0.0665175 
769 0.877739 0.181869 
770 0.901053 -0.179868 
771 0.913197 -0.0781399 
772 0.921698 -0.0662576 
773 0.907606 0.120218 
774 0.878292 -0.085599 
721 0.863917 0.191507 
722 0.873506 0.136396 
723 0.933433 -0.153747 
724 0.937308 0.0404011 
725 0.896048 0.0365675 
726 0.894806 0.0799189 
1347 0.928136 0.0920916 
1345 0.905294 -0.00910757 
1346 0.903918 -0.0997836 
1348 0.889136 -0.134585 
1349 0.893626 0.0198816 
1350 0.889908 -0.093931 
1297 0.94276 -0.0517114 
1298 0.913708 0.0621654 
1299 0.906676 -0.120261 
1300 0.930614 0.0236442 
1301 0.905278 -0.152065 
1302 0.927119 0.0637397 
1249 0.927858 0.11552 
1250 0.908767 -0.113263 
1251 0.887477 0.0417948 
1252 0.887291 -0.0829261 
1253 0.872214 0.0594605 
1254 0.888133 -0.0068769 
1201 0.957637 0.134091 
1202 0.896513 -0.00987557 
1203 0.892806 -0.0902556 
1204 0.902663 0.136264 
1205 0.921819 -0.0472046 
1206 0.901519 0.142689 
1153 0.971971 0.0894203 
1154 0.878274 -0.0425813 
1155 0.9199 0.0983636 
1156 0.916794 -0.0225042 
1157 0.899028 0.105974 
1158 0.924425 0.0063642 
1105 0.91793 -0.0168476 
1106 0.844672 -0.0593003 
1107 0.964607 0.0744981 
1108 0.937439 0.0622012 
1109 0.917789 -0.0456182 
1110 0.902718 0.0979284 
1393 0.928503 -0.186427 
1057 0.868161 -0.233114 
1058 0.906177 -0.130425 
1394 0.942135 -0.0649821 
1059 0.910837 0.164636 
1395 0.887625 -0.0488189 
1060 0.894728 -0.0242052 
1396 0.891375 0.0498889 
1061 0.897027 0.102609 
1397 0.891412 -0.179554 
1062 0.886473 -0.100906 
1398 0.926157 0.0499572 
1684 0.883947 -0.00768817 
1681 0.923716 0.0530116 
1682 0.878037 0.0115143 
1683 0.852176 -0.143811 
1685 0.894186 -0.161742 
1686 0.905398 0.101321 
1633 0.927625 0.0866846 
1634 0.865695 -0.212547 
1635 0.903041 -0.0581205 
1636 0.902386 -0.160294 
1637 0.92463 0.0423673 
1638 0.937138 -0.0755042 
1585 0.919814 -0.00109687 
1586 0.891036 0.00642878 
1587 0.914472 -0.150852 
1588 0.926804 -0.00198123 
1589 0.879566 -0.0992642 
1590 0.925696 0.106589 
1537 0.950237 0.00498138 
1538 0.930448 -0.0588286 
1539 0.935686 0.0813527 
1540 0.882855 -0.105807 
1541 0.90942 0.0686264 
1542 0.925237 -0.0939301 
1489 0.905993 -0.188849 
1490 0.935942 0.000258893 
1491 0.946569 -0.0510792 
1492 0.893048 -0.0467169 
1493 0.866825 -0.171246 
1494 0.919746 -0.00282564 
1441 0.927774 -0.116797 
1442 0.960885 -0.154334 
1443 0.921508 0.0170689 
1444 0.873146 -0.238178 
1445 0.891303 -0.037632 
1446 0.886207 -0.156837 
1729 0.910434 0.172028 
1730 0.881121 -0.0490456 
1731 0.900672 0.0414461 
1732 0.926855 -0.135634 
1733 0.863601 0.0607107 
1734 0.894434 -0.0167201 
2021 0.889039 0.173482 
2017 0.932459 -0.00758161 
2018 0.944335 -0.0406122 
2019 0.921492 0.110755 
2020 0.930534 -0.0483145 
2022 0.929922 0.235916 
1969 0.934422 -0.0312029 
1970 0.938006 0.0497683 
1971 0.898977 0.0422235 
1972 0.895054 0.096697 
1973 0.899675 -0.00747713 
1974 0.888159 0.170568 
1921 0.915245 0.0646448 
1922 0.912735 -0.00258201 
1923 0.924528 0.141763 
1924 0.905198 -0.017583 
1925 0.918211 0.0776732 
1926 0.932692 -0.0422063 
1873 0.948857 0.0618643 
1874 0.912454 0.113753 
1875 0.911976 0.0226742 
1876 0.921546 0.159025 
1877 0.918204 -0.0496933 
1878 0.918986 -0.00799412 
1825 0.929781 0.189291 
1826 0.919085 -0.0347407 
1827 0.885695 0.169327 
1828 0.889684 0.0910031 
1829 0.943487 0.0323388 
1830 0.912932 -0.159854 
1777 0.917279 0.118515 
2114 0.947374 -0.13205 
1778 0.924597 0.0925253 
1779 0.896055 -0.0584335 
2115 0.92779 0.173563 
1780 0.900086 0.151883 
1781 0.937478 -0.0233235 
2117 0.856784 0.156108 
1782 0.957195 0.048433 
2065 0.94312 -0.0172314 
2066 0.954654 -0.0638389 
2067 0.938584 -0.0340643 
2068 0.929827 0.0922392 
2069 0.916227 0.0383184 
2070 0.883325 0.254277 
2358 0.900687 0.0233003 
2353 0.89775 0.119419 
2354 0.86894 0.114101 
2355 0.903446 -0.0175007 
2356 0.896687 0.106572 
2357 0.914687 -0.0860377 
2305 0.940407 0.154801 
2306 0.939581 -0.0658389 
2307 0.942543 0.106197 
2308 0.912588 -0.0709713 
2309 0.926952 0.0244847 
2310 0.890043 -0.182076 
2257 0.875635 0.023065 
2258 0.915051 0.13488 
2259 0.941545 -0.0820016 
2260 0.938152 0.0444336 
2261 0.923266 -0.0933593 
2262 0.926306 -0.014622 
2209 0.904059 0.111014 
2210 0.927128 0.0125034 
2211 0.903879 0.103128 
2212 0.915871 -0.108658 
2213 0.894218 0.0343844 
2214 0.883054 -0.0665671 
2161 0.936902 -0.0390077 
2162 0.884084 -0.0194748 
2163 0.894896 0.0506543 
2164 0.888462 0.155577 
2165 0.916648 -0.0854803 
2166 0.909643 0.130211 
2449 0.916108 0.127481 
2113 0.943761 -0.0215444 
2450 0.894497 0.0650424 
2451 0.893475 -0.0803471 
2452 0.910297 0.106444 
2116 0.89238 -0.00353865 
2453 0.900981 -0.131889 
2454 0.931182 0.0403118 
2118 0.882631 0.0709362 
2401 0.892851 0.196043 
2402 0.900588 -0.0613661 
2403 0.908255 0.111724 
2404 0.893697 -0.0522018 
2405 0.896321 0.00581736 
2406 0.937679 -0.0706422 
7 0.914649 -0.00136335 
56 0.954493 -0.0159686 
57 0.908648 -0.0989585 
58 0.930323 0.0453795 
59 0.915999 -0.0756239 
60 0.887035 -0.01651 
8 0.920778 -0.111328 
9 0.905479 0.0441138 
10 0.923389 -0.0951906 
11 0.937499 0.0608504 
12 0.895739 -0.15842 
295 0.910164 0.0963544 
296 0.929949 -0.0509363 
297 0.915976 0.0534105 
298 0.914067 -0.0689372 
299 0.886378 0.0740543 
300 0.933047 -0.0725036 
247 0.896904 -0.0168135 
248 0.898765 0.0954116 
249 0.912797 -0.03467 
250 0.936813 0.122102 
251 0.93328 -0.0539715 
252 0.875342 0.020604 
199 0.901968 0.0580891 
200 0.906998 -0.0525385 
201 0.905153 0.103339 
202 0.914738 -0.0568034 
203 0.908932 0.0280311 
204 0.923289 -0.100332 
151 0.930636 -0.01493 
152 0.900388 0.0401997 
153 0.897966 -0.0615133 
154 0.875793 0.00201409 
155 0.865823 -0.0930524 
156 0.903542 0.0847493 
103 0.949651 0.111955 
104 0.915805 -0.122155 
105 0.935188 0.02401 
106 0.896367 -0.141418 
107 0.911589 0.0786925 
108 0.896559 -0.140226 
55 0.907684 -0.0174433 
344 0.913694 0.0279763 
680 0.91701 -0.0165818 
392 0.941582 -0.0564035 
393 0.933114 0.124758 
394 0.9367 0.00706316 
395 0.90737 0.143116 
396 0.891011 -0.0552794 
343 0.946771 -0.0294183 
679 0.871749 0.00287387 
345 0.914623 -0.0589025 
681 0.91606 0.0885905 
346 0.919764 0.0677325 
682 0.908237 -0.0920325 
347 0.911565 -0.00807556 
683 0.854334 0.115977 
348 0.899994 0.108854 
684 0.874455 0.00485052 
631 0.933871 -0.0492163 
632 0.899308 0.107163 
633 0.904747 -0.0340444 
634 0.914927 0.0671413 
635 0.932144 -0.0625881 
636 0.857286 0.0592931 
583 0.916528 0.081367 
584 0.904368 -0.0801526 
585 0.925658 0.0109137 
586 0.947002 -0.108629 
587 0.936292 0.0182572 
588 0.938176 -0.103144 
535 0.925805 -0.0728418 
536 0.917865 0.0445014 
537 0.907284 -0.119972 
538 0.929712 0.021183 
539 0.916649 -0.0777212 
540 0.926134 0.101125 
487 0.913889 0.0897587 
488 0.872382 -0.0888241 
489 0.88355 0.0189546 
490 0.911811 -0.0315541 
491 0.885783 0.131566 
492 0.892565 0.0139625 
439 0.918473 -0.0342281 
440 0.912178 0.0602797 
441 0.940735 -0.0556104 
442 0.915092 0.0955756 
443 0.928344 -0.00399064 
444 0.895633 0.108379 
391 0.917471 0.0082752 
1017 0.905697 0.0297414 
728 0.927441 0.046295 
729 0.919829 -0.0574137 
730 0.899567 0.0898954 
731 0.905333 -0.0377523 
732 0.934872 0.154385 
1015 0.918622 -0.105887 
1016 0.92003 0.141863 
1018 0.918981 0.0842781 
1019 0.893367 -0.10933 
1020 0.892114 0.035327 
967 0.893002 0.0992614 
968 0.909644 -0.0547897 
969 0.913669 0.119773 
970 0.867084 -0.0299698 
971 0.897249 0.0237208 
972 0.90657 -0.0725921 
919 0.914682 -0.0150169 
920 0.885962 0.0849351 
921 0.893283 -0.11821 
922 0.910699 0.0798506 
923 0.935174 -0.0607631 
924 0.922961 0.0826743 
871 0.887313 0.145588 
872 0.880931 -0.0931275 
873 0.916364 -0.0161026 
874 0.921046 -0.0484961 
875 0.924782 0.103852 
876 0.936056 -0.00655117 
823 0.873036 -0.0199944 
824 0.872549 0.074255 
825 0.906627 -0.14047 
826 0.94286 0.0937105 
827 0.882859 -0.0124535 
828 0.917144 0.0957264 
775 0.919479 0.0559192 
776 0.891475 -0.0769889 
777 0.890398 0.094702 
778 0.872457 0.00680602 
779 0.929154 0.071753 
780 0.925753 -0.0467988 
727 0.885123 -0.154963 
1354 0.895603 -0.063067 
1064 0.884866 -0.00817964 
1400 0.91575 0.0912472 
1065 0.932389 0.0936444 
1401 0.93459 0.020772 
1066 0.894601 -0.150593 
1402 0.927902 0.0723397 
1067 0.880623 0.0204006 
1403 0.911353 -0.187528 
1068 0.930053 0.013316 
1404 0.920735 -0.0241869 
1351 0.882263 0.0305947 
1352 0.932876 -0.00476299 
1353 0.918459 0.153057 
1355 0.912139 -0.195412 
1356 0.893894 0.139452 
1303 0.911384 -0.0957963 
1304 0.903573 0.0832558 
1305 0.91076 -0.0579855 
1306 0.930855 0.0969632 
1307 0.936309 -0.154711 
1308 0.910882 -0.0134861 
1255 0.911346 0.050541 
1256 0.891049 -0.130036 
1257 0.866207 0.0478146 
1258 0.895297 0.0379278 
1259 0.920775 -0.142317 
1260 0.933084 0.0263428 
1207 0.928338 -0.0067221 
1208 0.901298 0.0377043 
1209 0.897884 -0.127438 
1210 0.916763 0.172471 
1211 0.923228 -0.15996 
1212 0.887424 -0.0990031 
1159 0.921429 0.121621 
1160 0.901632 -0.0831749 
1161 0.881587 0.102879 
1162 0.929303 -0.00457899 
1163 0.884543 -0.173264 
1164 0.931816 0.0234908 
1111 0.892981 -0.0811776 
1112 0.906933 0.0579534 
1113 0.884788 -0.0579859 
1114 0.872501 0.0418108 
1115 0.902106 -0.156887 
1116 0.948836 0.0363229 
1063 0.893469 0.0197218 
1399 0.921416 -0.141741 
1691 0.916952 -0.0556317 
1736 0.93411 -0.141604 
1737 0.921489 0.0608545 
1738 0.897132 0.0215465 
1739 0.902273 -0.0950745 
1740 0.920211 0.0635629 
1687 0.93449 -0.0671908 
1688 0.926428 0.0258119 
1689 0.925461 -0.108681 
1690 0.92083 0.0870727 
1692 0.88957 4.48449e-05 
1639 0.914403 0.0857526 
1640 0.912654 -0.0434997 
1641 0.939022 0.0175789 
1642 0.91629 -0.0126529 
1643 0.903987 -0.191632 
1644 0.875 0.0794198 
1591 0.935985 -0.0443071 
1592 0.909212 0.11156 
1593 0.90661 -0.0797897 
1594 0.950375 0.133413 
1595 0.873505 -0.173925 
1596 0.879976 -0.180503 
1543 0.918783 0.0336841 
1544 0.890776 -0.112025 
1545 0.859169 0.0621029 
1546 0.901152 0.0532146 
1547 0.901016 -0.211747 
1548 0.887579 0.0731415 
1495 0.915926 -0.189256 
1496 0.960022 0.0695531 
1497 0.938844 -0.0405585 
1498 0.90079 0.108441 
1499 0.94018 -0.107189 
1500 0.908146 -0.0114857 
1447 0.869392 0.00795179 
1448 0.930218 0.0551313 
1449 0.945615 0.0902758 
1450 0.951422 -0.0865105 
1451 0.936416 -0.14237 
1452 0.92541 0.123009 
1735 0.925082 -0.00332421 
2028 0.9358 0.00957364 
2072 0.907955 -0.0789901 
2073 0.908031 -0.0344049 
2074 0.898848 0.107997 
2075 0.906251 -0.138765 
2076 0.933656 -0.0574562 
2023 0.900516 0.0893239 
2024 0.914015 -0.164545 
2025 0.87603 0.147145 
2026 0.887282 -0.00365575 
2027 0.918568 -0.195478 
1975 0.917695 0.0348636 
1976 0.951239 -0.0254802 
1977 0.90177 0.0218232 
1978 0.875745 0.116967 
1979 0.893699 -0.232304 
1980 0.905031 -0.147469 
1927 0.92055 0.00808138 
1928 0.93329 -0.0693817 
1929 0.949877 0.102945 
1930 0.910026 -0.160734 
1931 0.8914 -0.357584 
1932 0.91113 -0.0308697 
1879 0.911826 -0.0760489 
1880 0.915602 0.0269595 
1881 0.883313 -0.157247 
1882 0.928175 -0.0723517 
1883 0.895677 -0.353332 
1884 0.902543 -0.151117 
1831 0.918976 0.0114107 
1832 0.883888 -0.14301 
1833 0.911801 -0.0990735 
1834 0.900778 -0.237525 
1835 0.88811 -0.281405 
1836 0.912256 0.0773079 
1783 0.931924 -0.155469 
1784 0.929512 -0.0214623 
1785 0.928561 -0.133294 
2121 0.9049 0.0721347 
1786 0.93311 -0.0156414 
1787 0.907608 -0.255863 
2123 0.930704 -0.126048 
1788 0.90546 -0.0572256 
2124 0.942664 0.1372 
2071 0.948511 0.0714418 
2408 0.903863 -0.121336 
2409 0.899836 0.0538396 
2410 0.877187 -0.133415 
2411 0.902547 0.0214101 
2412 0.909429 -0.00466891 
2359 0.916769 -0.14513 
2360 0.947463 0.0116468 
2361 0.920616 -0.0542884 
2362 0.893452 0.0782751 
2363 0.919746 -0.160183 
2364 0.924355 0.0430693 
2311 0.889841 -0.0457642 
2312 0.923347 -0.0275387 
2313 0.90191 0.146535 
2314 0.905019 -0.0252125 
2315 0.930305 -0.0432578 
2316 0.932305 0.0390454 
2263 0.899785 -0.179934 
2264 0.919946 0.0587982 
2265 0.898526 0.0441681 
2266 0.90096 0.221007 
2267 0.933207 -0.0311319 
2268 0.943175 0.0397713 
2215 0.9202 0.0122738 
2216 0.926753 -0.0918783 
2217 0.876942 0.160213 
2218 0.895298 0.109015 
2219 0.946534 -0.0799875 
2220 0.89773 0.132022 
2167 0.905893 -0.0416301 
2168 0.911875 -0.0131485 
2169 0.918268 -0.0804501 
2170 0.891484 0.109576 
2171 0.927402 -0.136203 
2172 0.909728 0.0131071 
2455 0.945872 -0.0481443 
2119 0.922111 0.00496551 
2456 0.916947 0.0136219 
2120 0.933364 -0.100132 
2457 0.890638 -0.104197 
2458 0.887418 0.0263499 
2122 0.927258 -0.0725257 
2459 0.873086 -0.108424 
2460 0.921086 0.0744979 
2407 0.942395 0.0402121 
14 0.939784 0.0138995 
112 0.913606 0.176653 
113 0.913548 -0.00795359 
114 0.893555 0.0860763 
61 0.890659 -0.224277 
62 0.949277 -0.0217103 
63 0.949695 -0.0305194 
64 0.91013 0.0311942 
65 0.916558 0.18432 
66 0.955575 0.0309432 
13 0.920094 -0.0680571 
15 0.933783 -0.0802685 
16 0.895392 0.165095 
17 0.950055 0.0723436 
18 0.933702 0.125724 
301 0.925008 0.00435252 
302 0.932972 0.203672 
303 0.889345 -0.139189 
304 0.900864 0.0217143 
305 0.931569 -0.0368708 
306 0.907789 0.0861153 
253 0.922439 -0.112682 
254 0.921439 0.179559 
255 0.903024 0.0383257 
256 0.894524 -0.145204 
257 0.916352 0.0675633 
258 0.917579 -0.0327691 
205 0.932204 0.0615402 
206 0.954574 0.181799 
207 0.91743 -0.109806 
208 0.924834 0.0194309 
209 0.92999 -0.0987595 
210 0.900531 0.0953724 
157 0.900661 -0.0851086 
158 0.931946 0.102862 
159 0.941922 0.005482 
160 0.950125 -0.0544432 
161 0.93015 0.0844678 
162 0.920968 -0.0524243 
109 0.934021 -0.0955142 
110 0.957507 0.00573801 
111 0.947359 -0.0353018 
351 0.896677 0.0768849 
687 0.907152 -0.060112 
448 0.917063 -0.00685243 
449 0.927798 0.0842004 
450 0.898567 -0.0605161 
397 0.907063 0.0475578 
398 0.913566 0.22998 
399 0.923764 -0.0844815 
400 0.916818 0.0928176 
401 0.900591 -0.0605154 
402 0.900445 0.0283102 
349 0.937547 -0.103115 
685 0.88898 0.0408934 
350 0.905197 0.184021 
686 0.903257 0.219905 
352 0.906148 -0.139405 
688 0.944651 0.0268069 
353 0.934458 0.0702005 
689 0.89981 -0.113175 
354 0.940318 -0.0823327 
690 0.932601 -0.017356 
637 0.934099 -0.0615456 
638 0.903188 0.206491 
639 0.913819 0.0935405 
640 0.948539 -0.0899637 
641 0.934471 -0.00439316 
642 0.924755 -0.139554 
589 0.952872 0.054182 
590 0.909719 0.167437 
591 0.943246 0.0269642 
592 0.924908 0.0631409 
593 0.915989 -0.138788 
594 0.90729 -0.0210302 
541 0.928562 -0.0801846 
542 0.942563 0.10304 
543 0.908673 0.0730102 
544 0.92863 -0.00972943 
545 0.915734 0.0147813 
546 0.932913 -0.101592 
493 0.92848 0.0146211 
494 0.925289 0.139195 
495 0.933324 -0.0422674 
496 0.941945 0.0684122 
497 0.943011 -0.0926631 
498 0.906349 0.109409 
445 0.911982 -0.0653855 
446 0.940503 0.169838 
447 0.924608 0.081258 
1024 0.891817 -0.0175928 
784 0.908225 0.0644079 
785 0.897388 -0.129873 
786 0.905109 0.0636577 
733 0.942955 -0.0758224 
734 0.956691 0.1431 
735 0.920101 0.0503608 
736 0.895028 -0.0423778 
737 0.887908 0.0360343 
738 0.884967 -0.122205 
1021 0.925854 -0.120896 
1022 0.939493 0.100859 
1023 0.907514 0.0579644 
1025 0.919162 0.163628 
1026 0.936871 -0.0245335 
973 0.920689 -0.016087 
974 0.908164 0.171411 
975 0.89036 -0.11215 
976 0.875048 0.0711783 
977 0.915845 0.00598658 
978 0.918418 0.0797339 
925 0.943128 -0.0569086 
926 0.906101 0.145658 
927 0.874847 0.0354356 
928 0.88305 -0.141994 
929 0.900712 0.0984111 
930 0.924806 -0.0575003 
877 0.933931 0.0405113 
878 0.94059 0.11228 
879 0.901441 -0.15805 
880 0.874862 0.0385779 
881 0.913969 -0.0791027 
882 0.910641 0.0320394 
829 0.926054 -0.0472469 
830 0.945274 0.0779285 
831 0.907885 -0.0369712 
832 0.896714 -0.106676 
833 0.88841 0.0409875 
834 0.902594 -0.0857889 
781 0.947481 -0.000285544 
782 0.921529 0.103522 
783 0.913947 -0.11009 
1361 0.931123 -0.0492363 
1120 0.941365 0.0583425 
1121 0.879518 0.0864325 
1122 0.87198 -0.0418694 
1069 0.921119 -0.0684803 
1405 0.925004 0.14117 
1070 0.91665 0.092351 
1406 0.8941 -0.00681706 
1071 0.944964 0.033395 
1407 0.90063 0.123899 
1072 0.921998 0.186129 
1408 0.918755 -0.0742208 
1073 0.886053 -0.02507 
1409 0.926137 0.0075589 
1074 0.923626 0.081679 
1410 0.936009 -0.0351179 
1357 0.893748 -0.0288292 
1358 0.914301 0.0807356 
1359 0.908119 -0.0353644 
1360 0.917021 0.0069576 
1362 0.918179 0.0790587 
1309 0.880343 0.0708636 
1310 0.927585 -0.099769 
1311 0.930654 0.0999016 
1312 0.938116 -0.0838691 
1313 0.930527 0.0350054 
1314 0.930859 -0.0198908 
1261 0.935627 -0.190012 
1262 0.90688 0.0410962 
1263 0.904578 -0.0649635 
1264 0.901024 0.0310747 
1265 0.927699 -0.0237251 
1266 0.918335 0.0923619 
1213 0.887793 -0.0337734 
1214 0.875383 -0.168219 
1215 0.93223 0.113653 
1216 0.917059 -0.0294838 
1217 0.899437 0.12663 
1218 0.918869 -0.0569366 
1165 0.878923 -0.0828774 
1166 0.901719 0.0736556 
1167 0.901386 0.0108602 
1168 0.886999 0.11705 
1169 0.911975 -0.0291724 
1170 0.905825 0.0651862 
1117 0.92924 -0.00346178 
1118 0.942523 -0.0364857 
1119 0.922884 0.111475 
1698 0.935865 -0.00525584 
1456 0.903476 -0.0330293 
1457 0.967772 0.00550049 
1458 0.937928 0.0727328 
1741 0.931077 -0.0666469 
1742 0.928902 0.0401505 
1743 0.920741 -0.0537533 
1744 0.921088 0.0641434 
1745 0.925134 0.0709411 
1746 0.947052 -0.0320341 
1693 0.921804 0.162124 
1694 0.943066 -0.0302403 
1695 0.938105 0.089988 
1696 0.937976 -0.033175 
1697 0.927521 0.112317 
1645 0.915483 0.0190574 
1646 0.918019 0.0933363 
1647 0.9228 0.00144213 
1648 0.934589 0.0297408 
1649 0.939118 0.120033 
1650 0.879428 -0.110205 
1597 0.896687 0.0555968 
1598 0.908311 -0.0685535 
1599 0.901176 0.0313123 
1600 0.906575 -0.11251 
1601 0.917394 0.00903735 
1602 0.917713 -0.0391878 
1549 0.902058 -0.119577 
1550 0.953652 -0.0193833 
1551 0.922912 -0.128976 
1552 0.948427 -0.120739 
1553 0.902461 0.0433992 
1554 0.92825 -0.0774261 
1501 0.872216 0.0647677 
1502 0.908122 -0.1706 
1503 0.961177 0.0326255 
1504 0.948374 -0.140971 
1505 0.924663 0.0541118 
1506 0.921958 0.0921311 
1453 0.888532 -0.0597512 
1454 0.891985 0.0808129 
1455 0.926446 -0.0066187 
1792 0.922798 -0.00639515 
2128 0.907644 0.072043 
1793 0.92694 0.106595 
2129 0.917663 -0.11584 
1794 0.933471 0.021522 
2130 0.899237 0.101634 
2077 0.951575 0.0702762 
2078 0.943338 -0.0190356 
2079 0.922091 0.147249 
2080 0.905224 0.0182065 
2081 0.887818 0.0733285 
2082 0.87679 -0.0736346 
2029 0.955504 -0.0869362 
2030 0.90663 0.119288 
2031 0.916687 0.00492226 
2032 0.935672 0.110399 
2033 0.893962 -0.0638574 
2034 0.932915 0.0468631 
1981 0.935581 -0.00815096 
1982 0.927635 -0.0840894 
1983 0.918239 0.120232 
1984 0.945332 -0.0205495 
1985 0.94214 0.134273 
1986 0.935736 -0.018291 
1933 0.930388 -0.105251 
1934 0.91041 0.0845726 
1935 0.933299 -0.0166976 
1936 0.900305 0.130208 
1937 0.912355 0.0256889 
1938 0.91746 0.122771 
1885 0.918159 0.0400194 
1886 0.909396 -0.0580591 
1887 0.911352 0.0903015 
1888 0.929097 -0.0130749 
1889 0.898415 0.10919 
1890 0.928353 -0.0278219 
1837 0.91443 -0.0443567 
1838 0.916966 0.0645304 
1839 0.932535 -0.0182285 
1840 0.928511 0.100177 
1841 0.927431 -0.0239157 
1842 0.935237 0.0702179 
2125 0.912292 -0.0444629 
1789 0.902847 0.0636421 
1790 0.9278 -0.0502819 
2126 0.912616 0.126501 
1791 0.922422 0.0655504 
2464 0.87374 -0.0243854 
2465 0.88627 0.116729 
2466 0.903857 0.0477278 
2413 0.947929 -0.0797506 
2414 0.861744 0.0726686 
2415 0.880755 -0.0753066 
2416 0.914344 0.0461093 
2417 0.932105 -0.00833736 
2418 0.904032 0.211831 
2365 0.962419 -0.011783 
2366 0.929008 0.0690923 
2367 0.869276 0.0989664 
2368 0.909337 -0.0982163 
2369 0.928752 0.0953836 
2370 0.932278 0.0233201 
2317 0.936946 -0.0657382 
2318 0.918952 0.104137 
2319 0.910446 -0.0581236 
2320 0.912055 0.0641428 
2321 0.929648 0.0360438 
2322 0.96785 0.0357085 
2269 0.916275 0.00620586 
2270 0.89324 -0.137498 
2271 0.910242 0.059958 
2272 0.911596 -0.0626986 
2273 0.926668 0.120473 
2274 0.934616 -0.0749659 
2221 0.87915 -0.0517784 
2222 0.871345 0.0721365 
2223 0.903278 -0.110974 
2224 0.92167 0.00205596 
2225 0.945117 -0.0516353 
2226 0.873165 0.0475696 
2173 0.886266 0.158142 
2174 0.889564 -0.0190872 
2175 0.886756 0.106254 
2176 0.926698 -0.159442 
2177 0.928273 -0.0230421 
2178 0.904734 -0.0333099 
2461 0.926841 -0.138806 
2462 0.932443 -0.00332758 
2463 0.937959 -0.021791 
2127 0.908446 -0.00281526 
21 0.871941 -0.0882348 
168 0.883568 -0.0691725 
115 0.921172 -0.01663 
116 0.927459 0.087805 
117 0.907612 -0.0642489 
118 0.948302 0.0260138 
119 0.90251 -0.124333 
120 0.951469 -0.061474 
67 0.896439 0.0795748 
68 0.941342 -0.00182119 
69 0.925387 0.0791628 
70 0.897232 -0.189587 
71 0.945597 -0.0703098 
72 0.928373 -0.164482 
19 0.946749 -0.0203496 
20 0.925869 0.173141 
22 0.901335 -0.120404 
23 0.913591 -0.153202 
24 0.921117 -0.0498481 
307 0.886403 -0.146171 
308 0.898069 -0.0124948 
309 0.921695 -0.085418 
310 0.896872 0.137106 
311 0.89464 -0.0307868 
312 0.913436 0.0622364 
259 0.896231 0.0901485 
260 0.908586 -0.102975 
261 0.883989 0.000920144 
262 0.841327 -0.0835159 
263 0.892964 0.109805 
264 0.922687 -0.0954751 
211 0.917499 -0.0379453 
212 0.883805 0.128604 
213 0.828713 -0.0799614 
214 0.898431 0.0410102 
215 0.908272 -0.0659299 
216 0.902335 0.0719005 
163 0.896289 0.0860984 
164 0.906631 -0.00398977 
165 0.878179 0.110505 
166 0.884188 -0.068915 
167 0.913747 0.042752 
358 0.917576 0.00929278 
694 0.944437 0.0414325 
504 0.899138 -0.0324883 
451 0.867999 0.0310511 
452 0.920325 -0.215912 
453 0.946464 0.00607696 
454 0.905531 0.034711 
455 0.881404 0.0490675 
456 0.918713 -0.164001 
403 0.928388 -0.102432 
404 0.930883 -0.0142508 
405 0.931302 -0.0750528 
406 0.919638 0.113687 
407 0.91909 -0.0438755 
408 0.925028 0.0445183 
355 0.893858 0.0126299 
691 0.916341 -0.0958284 
356 0.897651 -0.141922 
692 0.907773 0.0638788 
357 0.937391 0.0498153 
693 0.916621 -0.0787903 
359 0.907733 0.124572 
695 0.91719 -0.0903825 
360 0.907346 -0.0318256 
696 0.914096 0.0918227 
643 0.945306 -0.00068384 
644 0.907413 -0.0862632 
645 0.889587 -0.0265426 
646 0.867516 -0.150331 
647 0.943166 0.0530775 
648 0.935316 -0.0208533 
595 0.896371 -0.0365435 
596 0.908494 0.0520207 
597 0.874284 -0.215817 
598 0.897533 -0.0631471 
599 0.933381 -0.0329942 
600 0.940303 0.0355438 
547 0.92638 0.0884029 
548 0.873055 -0.0337638 
549 0.903855 0.0192891 
550 0.919218 -0.171114 
551 0.912334 0.0477963 
552 0.920992 -0.0923706 
499 0.865708 -0.138324 
500 0.922627 -0.045601 
501 0.921472 -0.0236448 
502 0.892094 0.0944185 
503 0.912961 -0.151302 
1031 0.903396 0.164702 
840 0.903328 -0.0292934 
787 0.913921 -0.0785777 
788 0.909372 0.00953627 
789 0.956234 -0.020329 
790 0.933886 0.193731 
791 0.923712 -0.0980119 
792 0.898246 0.114278 
739 0.90187 0.0164687 
740 0.912335 -0.0936718 
741 0.915762 0.0568867 
742 0.903839 -0.0224102 
743 0.904022 0.0214634 
744 0.902002 -0.0856841 
1027 0.917468 0.0508429 
1028 0.901789 -0.0927632 
1029 0.903341 0.0616899 
1030 0.925088 -0.123631 
1032 0.880868 -0.0827393 
979 0.910136 -0.107195 
980 0.900141 0.043153 
981 0.908817 -0.0876155 
982 0.924311 -0.0341023 
983 0.946969 0.0483348 
984 0.880594 -0.0931192 
931 0.912528 0.0458461 
932 0.92704 -0.0732314 
933 0.929385 0.111508 
934 0.952969 -0.0675526 
935 0.920253 0.111661 
936 0.935777 -0.0109214 
883 0.94335 -0.0525354 
884 0.915332 0.145889 
885 0.936354 0.0473016 
886 0.86011 0.18161 
887 0.913956 0.0515792 
888 0.913319 0.0123823 
835 0.905766 0.082689 
836 0.914506 -0.0590225 
837 0.900813 0.0894335 
838 0.907507 0.111802 
839 0.841169 0.149009 
1368 0.941405 -0.12428 
1176 0.895126 -0.12638 
1123 0.893128 0.0691533 
1124 0.895753 -0.112643 
1125 0.900221 0.138688 
1126 0.920939 -0.0385583 
1127 0.926203 0.105867 
1128 0.912367 -0.0590587 
1075 0.906581 -0.0959605 
1411 0.926254 0.0392996 
1076 0.894928 0.0790108 
1412 0.904735 -0.0966701 
1077 0.910629 -0.0657152 
1413 0.921833 0.180623 
1078 0.896872 0.038323 
1414 0.936475 0.0433624 
1079 0.901347 0.0906821 
1415 0.938723 0.0643742 
1080 0.895061 -0.248205 
1416 0.901298 -0.0783123 
1363 0.900435 -0.0351787 
1364 0.888957 0.108236 
1365 0.936992 0.0863039 
1366 0.886263 0.145854 
1367 0.86201 -0.00619351 
1315 0.919172 0.119914 
1316 0.924898 -0.031832 
1317 0.90128 0.106888 
1318 0.941454 0.0562699 
1319 0.89367 0.105202 
1320 0.934429 -0.146223 
1267 0.915402 -0.0356477 
1268 0.926572 0.0253678 
1269 0.954177 -0.0244601 
1270 0.947226 0.111716 
1271 0.93004 0.0120044 
1272 0.90785 -0.116471 
1219 0.915716 0.023976 
1220 0.904996 -0.099913 
1221 0.942545 0.0568146 
1222 0.917437 -0.0521826 
1223 0.941591 0.103044 
1224 0.945822 -0.0496385 
1171 0.891196 -0.135166 
1172 0.864395 0.0460665 
1173 0.889976 0.00956217 
1174 0.918506 0.0525722 
1175 0.928928 0.0743745 
1512 0.885104 0.069524 
1459 0.861287 -0.125189 
1460 0.892743 0.00128283 
1461 0.915586 0.0745944 
1462 0.941333 0.100753 
1463 0.919916 -0.0566692 
1464 0.9259 0.162529 
1747 0.952969 -0.0404877 
1748 0.90763 0.219513 
1749 0.908889 0.00199592 
1750 0.91945 -0.0052088 
1751 0.94484 -0.0733135 
1752 0.894799 0.115708 
1699 0.89603 -0.15287 
1700 0.934664 0.0326132 
1701 0.899984 0.0565133 
1702 0.923888 -0.020614 
1703 0.932147 0.134103 
1704 0.912765 0.0691712 
1651 0.88629 -0.108157 
1652 0.953252 0.0581746 
1653 0.95415 -0.0659201 
1654 0.896281 0.205226 
1655 0.910979 0.0830595 
1656 0.927483 0.146876 
1603 0.935849 -0.138554 
1604 0.916764 -0.0175691 
1605 0.93895 -0.0481477 
1606 0.88425 0.048924 
1607 0.883722 0.233679 
1608 0.93462 0.00566555 
1555 0.949768 -0.146119 
1556 0.910778 0.0270501 
1557 0.911351 -0.0275546 
1558 0.910908 0.168442 
1559 0.922971 0.0432782 
1560 0.897034 0.146123 
1507 0.952069 -0.121615 
1508 0.867529 -0.0988934 
1509 0.93694 0.136636 
1510 0.934734 0.0365097 
1511 0.918272 0.109291 
1848 0.910835 0.0496508 
1795 0.916064 0.0634688 
1796 0.908562 0.145691 
2132 0.897052 0.0361644 
2133 0.894254 -0.00636779 
1797 0.877834 0.160305 
1798 0.930273 -0.137317 
2134 0.915984 0.138234 
2135 0.897553 0.0408607 
1799 0.891366 0.0614542 
1800 0.955769 -0.0261699 
2136 0.928034 0.115071 
2083 0.869117 0.0169429 
2084 0.886422 -0.133552 
2085 0.915533 0.129243 
2086 0.920197 0.00830068 
2087 0.91934 0.153471 
2088 0.934745 0.0213971 
2035 0.899219 -0.131549 
2036 0.920725 0.0308324 
2037 0.920018 -0.0153018 
2038 0.933169 0.0297252 
2039 0.94104 -0.0852773 
2040 0.901877 0.0691366 
1987 0.9293 0.0781468 
1988 0.913551 -0.1052 
1989 0.93527 0.0985406 
1990 0.955262 -0.0127703 
1991 0.923888 -0.0296571 
1992 0.917519 -0.114353 
1939 0.908292 -0.0249006 
1940 0.905434 0.0461256 
1941 0.956978 0.0260642 
1942 0.92744 0.126752 
1943 0.912457 -0.106213 
1944 0.928299 -0.0190501 
1891 0.921301 0.0945127 
1892 0.953762 -0.00385354 
1893 0.897129 0.0804743 
1894 0.895596 0.0591506 
1895 0.911768 0.155128 
1896 0.933831 -0.107043 
1843 0.949484 0.0609067 
1844 0.893376 0.185227 
1845 0.919066 -0.0795515 
1846 0.886646 0.140932 
1847 0.896327 0.0632716 
2323 0.922316 -0.0922183 
2184 0.917144 -0.0373703 
2467 0.90666 0.180227 
2131 0.901487 -0.131986 
2468 0.908261 -0.0213166 
2469 0.919007 0.0920313 