ITEM: TIMESTEP
4000
ITEM: NUMBER OF ATOMS
2496
ITEM: BOX BOUNDS pp pp pp
-6.6742400000000002e+00 1.6287400000000000e+02
8.8389299999999995e+00 1.5226100000000000e+02
-2.0000000000000001e-01 2.0000000000000001e-01
ITEM: ATOMS id c_1[1] c_1[2] 
1 0.903343 0.161969 
2 0.900912 0.0176519 
3 0.889915 0.120456 
4 0.895348 -0.0163289 
5 0.902473 0.102224 
6 0.906042 -0.0209621 
289 0.930067 0.127466 
290 0.911836 -0.0902859 
291 0.906733 -0.00691933 
292 0.944002 -0.0657705 
293 0.92425 0.00615929 
294 0.920156 0.0455643 
241 0.892193 -0.132572 
242 0.905285 0.00863384 
243 0.928477 -0.139715 
244 0.929764 0.0405371 
245 0.918921 -0.0638586 
246 0.918686 0.104279 
193 0.89855 -0.0207173 
194 0.927739 -0.125445 
195 0.916016 0.0502996 
196 0.927511 -0.01088 
197 0.87468 0.13532 
198 0.892447 -0.0903946 
145 0.949601 -0.0725168 
146 0.909738 0.0229841 
147 0.938804 -0.0732925 
148 0.921264 0.0882758 
149 0.941313 0.0337359 
150 0.873964 0.0777849 
97 0.940644 0.104423 
98 0.93532 -0.0281336 
99 0.933415 0.0960828 
100 0.96193 -0.0263397 
101 0.91782 0.158411 
102 0.906854 -0.0511301 
49 0.926309 0.0353668 
50 0.934723 0.156531 
51 0.913333 0.00240142 
52 0.927702 0.076594 
53 0.907829 -0.0218169 
54 0.913099 0.11227 
673 0.872296 0.0529808 
337 0.951714 0.0798485 
674 0.873913 -0.136456 
338 0.937238 0.100495 
339 0.936919 -0.0901052 
675 0.895982 -0.0776417 
340 0.93952 0.0298894 
676 0.937369 -0.0330442 
341 0.93183 -0.0874553 
677 0.920825 0.1056 
342 0.906252 0.0725501 
678 0.922787 -0.00830548 
625 0.903113 0.0114473 
626 0.862125 0.0676792 
627 0.891497 -0.180952 
628 0.937448 0.0554698 
629 0.924945 -0.00198411 
630 0.918961 0.09413 
577 0.932165 0.0798752 
578 0.879737 -0.138079 
579 0.878876 0.0332244 
580 0.905572 0.0332083 
581 0.928676 0.114891 
582 0.89608 -0.101796 
529 0.917231 -0.079318 
530 0.93092 0.0492395 
531 0.876649 -0.0391465 
532 0.894454 0.161042 
533 0.902856 -0.0629441 
534 0.921279 -0.0059204 
481 0.902564 0.0509757 
482 0.880781 0.0303179 
483 0.922504 0.103134 
484 0.88966 -0.143835 
485 0.912407 -0.0821975 
486 0.937574 -0.100695 
433 0.941465 -0.0567064 
434 0.917386 0.114522 
435 0.917887 -0.0524127 
436 0.904887 -0.0978798 
437 0.890562 -0.227653 
438 0.939206 0.0166289 
385 0.935896 0.0763576 
386 0.932326 -0.0587767 
387 0.922775 -0.010043 
388 0.879544 -0.179904 
389 0.884745 -0.0265956 
390 0.922807 0.0223255 
1010 0.926841 -0.153068 
1009 0.91696 0.0710048 
1011 0.900749 -0.0298232 
1012 0.898992 0.0726151 
1013 0.896589 -0.0586091 
1014 0.891245 0.0308143 
961 0.915638 0.00431833 
962 0.913133 -0.164257 
963 0.919707 0.0413092 
964 0.899648 -0.0669566 
965 0.924545 0.0542551 
966 0.870483 -0.158231 
913 0.918769 0.0903288 
914 0.931855 -0.0942995 
915 0.942572 -0.0564046 
916 0.939703 0.0962423 
917 0.943091 -0.053299 
918 0.908397 -0.0119581 
865 0.925348 -0.0262618 
866 0.947628 -0.133666 
867 0.92772 0.106063 
868 0.946255 -0.0437737 
869 0.939296 0.0769354 
870 0.886542 -0.139209 
817 0.964809 0.048173 
818 0.924758 -0.118013 
819 0.893869 -0.0349107 
820 0.905174 0.09329 
821 0.890326 -0.0862831 
822 0.933549 0.0995349 
769 0.950524 -0.0378237 
770 0.919026 -0.231476 
771 0.949102 0.0667638 
772 0.88792 -0.07274 
773 0.896644 0.0661571 
774 0.924849 0.0485822 
721 0.906415 -0.00680409 
722 0.955731 -0.151962 
723 0.892755 -0.210891 
724 0.959512 0.000475057 
725 0.948399 -0.0188476 
726 0.923074 0.138626 
1347 0.950316 0.099543 
1345 0.92771 -0.0351797 
1346 0.93592 0.0313861 
1348 0.933909 -0.146565 
1349 0.921572 0.0418518 
1350 0.934681 -0.11821 
1297 0.940049 0.108229 
1298 0.923527 0.0147457 
1299 0.89301 0.00453589 
1300 0.912276 -0.00308257 
1301 0.870326 -0.116995 
1302 0.915924 0.0561573 
1249 0.914737 0.146872 
1250 0.907755 -0.0839207 
1251 0.918409 0.0112066 
1252 0.875118 -0.168462 
1253 0.900624 -0.00140841 
1254 0.937598 -0.0527458 
1201 0.937046 0.0751966 
1202 0.894875 -0.0417705 
1203 0.932594 -0.166909 
1204 0.908531 -0.0540123 
1205 0.906291 -0.156958 
1206 0.915887 0.0244362 
1153 0.938297 0.0452234 
1154 0.929362 -0.143048 
1155 0.933546 0.00351687 
1156 0.915935 -0.139505 
1157 0.922818 0.0606918 
1158 0.875767 -0.102714 
1105 0.912315 0.169416 
1106 0.913729 -0.0969416 
1107 0.911031 -0.0380709 
1108 0.933323 0.0976957 
1109 0.913265 -0.0714779 
1110 0.923243 0.0301491 
1393 0.910356 -0.00130769 
1057 0.914942 0.0310266 
1058 0.92491 -0.160404 
1394 0.944262 0.0228221 
1059 0.911747 0.147437 
1395 0.909825 0.100887 
1060 0.908432 -0.0187162 
1396 0.923381 0.0233698 
1061 0.912795 0.0500437 
1397 0.932184 -0.085293 
1062 0.92304 -0.134731 
1398 0.919966 0.0496667 
1684 0.912064 0.145263 
1681 0.950637 -0.169611 
1682 0.876075 -0.0543258 
1683 0.954141 0.104567 
1685 0.930327 -0.0482623 
1686 0.906397 0.133179 
1633 0.886088 -0.10243 
1634 0.946808 -0.0514918 
1635 0.925798 0.220434 
1636 0.914369 0.0369927 
1637 0.895925 0.137863 
1638 0.914246 -0.0107068 
1585 0.956142 0.0425997 
1586 0.916097 -0.107604 
1587 0.921613 0.0760295 
1588 0.923674 0.172472 
1589 0.944088 0.011053 
1590 0.893813 0.0598978 
1537 0.896123 0.00539071 
1538 0.936707 -0.0776501 
1539 0.899244 0.150736 
1540 0.940005 0.0315744 
1541 0.938553 0.0519856 
1542 0.948245 -0.110326 
1489 0.928658 0.142402 
1490 0.945215 -0.0932405 
1491 0.934445 0.0781315 
1492 0.878354 0.0873943 
1493 0.911903 -0.0633964 
1494 0.924142 0.0307831 
1441 0.919531 0.0252499 
1442 0.915386 -0.00273559 
1443 0.924418 0.149029 
1444 0.909222 -0.086925 
1445 0.909009 0.0635996 
1446 0.918923 -0.0334832 
1729 0.946858 -0.0583042 
1730 0.891883 -0.0633406 
1731 0.886029 0.151546 
1732 0.870409 -0.0553616 
1733 0.886099 0.064449 
1734 0.890899 0.00803821 
2021 0.886196 -0.0412237 
2017 0.933699 -0.00489456 
2018 0.934211 -0.12268 
2019 0.929738 0.0589701 
2020 0.878801 -0.174975 
2022 0.941305 -0.0340336 
1969 0.935819 -0.0921433 
1970 0.936495 0.0416369 
1971 0.919793 -0.109927 
1972 0.916625 -0.0267668 
1973 0.906781 -0.196214 
1974 0.925898 0.0365185 
1921 0.893412 0.118193 
1922 0.905409 -0.0130864 
1923 0.915002 0.0586359 
1924 0.896211 -0.109067 
1925 0.885662 0.043355 
1926 0.919261 -0.065298 
1873 0.90606 -0.0400102 
1874 0.909432 0.124697 
1875 0.917365 -0.0162172 
1876 0.914379 0.0800808 
1877 0.903173 -0.0522093 
1878 0.889268 0.0533405 
1825 0.935358 0.0329726 
1826 0.942051 -0.0702398 
1827 0.922 0.116656 
1828 0.914076 -0.101589 
1829 0.932062 0.0450637 
1830 0.901986 -0.0744044 
2113 0.899489 0.109711 
1777 0.917726 -0.113644 
2114 0.918309 -0.0393472 
1778 0.928927 -0.0257817 
1779 0.866755 -0.0368546 
2115 0.885329 0.0956737 
1780 0.876452 0.128314 
2116 0.884933 -0.028167 
1781 0.899718 -0.118271 
2117 0.944012 -0.00070126 
1782 0.942239 0.0945893 
2118 0.969048 -0.0499816 
2065 0.937598 -0.00123364 
2066 0.898381 0.0125342 
2067 0.922912 -0.043684 
2068 0.884557 0.0927358 
2069 0.900082 -0.127617 
2070 0.954122 0.0262971 
2358 0.915122 0.119312 
2353 0.90937 -0.0763305 
2354 0.877113 0.0260493 
2355 0.877871 -0.12663 
2356 0.883654 0.155402 
2357 0.952844 0.0624963 
2305 0.930951 0.0349407 
2306 0.873895 -0.169343 
2307 0.895321 -0.0643361 
2308 0.955571 0.00522335 
2309 0.900733 0.209949 
2310 0.902304 0.00603812 
2257 0.941967 -0.035323 
2258 0.934182 0.0780458 
2259 0.925336 -0.14805 
2260 0.930445 0.0450142 
2261 0.893079 0.100254 
2262 0.882007 0.21372 
2209 0.902955 0.155376 
2210 0.896669 0.00201255 
2211 0.898459 0.0486706 
2212 0.936547 -0.0397017 
2213 0.91232 0.195032 
2214 0.914472 0.0343985 
2161 0.900003 0.000578129 
2162 0.892281 0.151486 
2163 0.917658 -0.0470962 
2164 0.907014 0.0590051 
2165 0.893768 -0.0606095 
2166 0.912001 0.102222 
2449 0.925902 -0.024647 
2450 0.905248 0.1231 
2451 0.902321 -0.00285056 
2452 0.89794 0.182969 
2453 0.923355 -0.0377727 
2454 0.919713 0.111228 
2401 0.881045 0.0672535 
2402 0.901487 -0.0720405 
2403 0.862662 0.162396 
2404 0.874429 0.0866549 
2405 0.914116 0.0991179 
2406 0.925464 -0.0342596 
7 0.922636 0.0419026 
56 0.932849 0.00428447 
57 0.903083 -0.145429 
58 0.913439 0.0188387 
59 0.873311 -0.315711 
60 0.861818 -0.12965 
8 0.897714 -0.114749 
9 0.909325 -0.000500196 
10 0.898205 -0.128526 
11 0.861442 -0.268399 
12 0.921441 0.0463246 
295 0.940919 0.033372 
296 0.955768 -0.13025 
297 0.9412 0.0738536 
298 0.907759 -0.0403493 
299 0.947532 0.0333076 
300 0.911271 0.00838749 
247 0.893024 -0.102621 
248 0.951142 -0.120212 
249 0.934124 -0.0136354 
250 0.927586 0.115831 
251 0.917012 -0.133554 
252 0.866039 -0.0618287 
199 0.863964 -0.117743 
200 0.93617 -0.0736265 
201 0.951534 0.125242 
202 0.92403 -0.0997945 
203 0.894006 -0.269599 
204 0.902861 -0.0734432 
151 0.903806 -0.117088 
152 0.901543 0.0387594 
153 0.856604 -0.0706699 
154 0.928439 0.0697779 
155 0.912608 -0.230621 
156 0.934241 -0.150247 
103 0.933216 0.064635 
104 0.866221 -0.150234 
105 0.884391 0.0268057 
106 0.89234 -0.0705397 
107 0.906452 -0.274404 
108 0.892431 0.0172692 
55 0.925282 -0.0828883 
344 0.895633 0.0160751 
680 0.89655 -0.0192876 
392 0.934338 0.0258323 
393 0.950577 0.0215338 
394 0.946713 -0.182097 
395 0.921993 0.0914762 
396 0.899886 -0.0165189 
679 0.905988 0.147823 
343 0.93955 0.0794001 
345 0.938528 -0.032826 
681 0.928131 0.0497071 
346 0.939473 -0.0276036 
682 0.863513 -0.147053 
347 0.910621 -0.120419 
683 0.891057 -0.24163 
348 0.935848 0.0688868 
684 0.919049 0.0911513 
631 0.889774 -0.0375099 
632 0.906405 0.135791 
633 0.94505 -0.0412231 
634 0.925503 0.048542 
635 0.913624 -0.248664 
636 0.938837 -0.0555731 
583 0.888328 0.0438106 
584 0.941828 -0.045316 
585 0.908534 0.124 
586 0.895922 -0.117814 
587 0.901726 -0.129083 
588 0.900095 0.0519365 
535 0.906164 -0.0525367 
536 0.885512 0.0933291 
537 0.88077 -0.00483901 
538 0.887316 0.143007 
539 0.933664 -0.129763 
540 0.931148 0.0870531 
487 0.928117 0.118753 
488 0.901123 -0.021967 
489 0.906963 0.176723 
490 0.908533 0.0366829 
491 0.912508 0.0731907 
492 0.94628 0.0660143 
439 0.927894 -0.0342947 
440 0.92462 0.120968 
441 0.924092 0.0205332 
442 0.887577 0.0724141 
443 0.927259 0.0193171 
444 0.920616 0.103971 
391 0.90942 0.104267 
1017 0.926817 -0.0907423 
728 0.911113 0.0905828 
729 0.903549 -0.0904988 
730 0.911336 0.00883143 
731 0.870595 -0.239073 
732 0.889439 0.00408637 
1015 0.880139 -0.163868 
1016 0.944512 0.0185909 
1018 0.929498 0.00231894 
1019 0.923846 -0.182672 
1020 0.859931 0.0564769 
967 0.876426 0.0108962 
968 0.904151 0.0276615 
969 0.922546 0.078637 
970 0.921161 -0.0352094 
971 0.897804 -0.174255 
972 0.815614 0.176073 
919 0.883293 -0.169921 
920 0.910417 0.126269 
921 0.927026 0.0216336 
922 0.916913 0.060089 
923 0.907577 -0.141206 
924 0.907418 -0.0083621 
871 0.866717 -4.31959e-05 
872 0.921701 -0.0157359 
873 0.936726 0.0275904 
874 0.92226 -0.0795068 
875 0.922599 -0.16391 
876 0.883615 0.106773 
823 0.938858 -0.0480802 
824 0.891836 0.0746018 
825 0.924616 -0.116522 
826 0.940042 0.00211493 
827 0.946785 -0.111125 
828 0.940205 -0.0155671 
775 0.914489 0.144524 
776 0.907945 -0.0793825 
777 0.912987 -0.0130751 
778 0.940407 -0.0589401 
779 0.953948 -0.0498228 
780 0.908501 0.123861 
727 0.910901 0.0354489 
1354 0.886306 -0.00673761 
1400 0.898021 -0.0351919 
1064 0.929682 -0.121021 
1065 0.928721 0.0186903 
1401 0.860623 -0.159375 
1066 0.932662 -0.10778 
1402 0.926734 0.0578937 
1067 0.925031 -0.144775 
1403 0.904083 -0.229508 
1068 0.89887 0.153656 
1404 0.879951 0.0160003 
1351 0.914365 0.0498287 
1352 0.860221 -0.131725 
1353 0.88853 0.0396908 
1355 0.915025 -0.16985 
1356 0.91578 0.0989072 
1303 0.939945 -0.0994403 
1304 0.915749 0.0754655 
1305 0.938353 -0.0658659 
1306 0.926631 0.145371 
1307 0.918559 -0.10828 
1308 0.945697 -0.0284728 
1255 0.911395 0.106829 
1256 0.939822 -0.0139151 
1257 0.907937 0.196102 
1258 0.892937 -0.0133324 
1259 0.936528 -0.183611 
1260 0.949405 0.0631923 
1207 0.853163 -0.0183343 
1208 0.898488 0.125071 
1209 0.863687 -0.0149344 
1210 0.911837 0.167682 
1211 0.9141 -0.24268 
1212 0.903432 -0.12484 
1159 0.930645 0.0592413 
1160 0.897878 -0.0938085 
1161 0.874195 0.109937 
1162 0.887308 0.0118001 
1163 0.899809 -0.224518 
1164 0.912043 0.0565955 
1111 0.914633 -0.125376 
1112 0.939699 -0.000944386 
1113 0.921328 -0.0805295 
1114 0.911289 0.115881 
1115 0.941549 -0.1886 
1116 0.932098 -0.0570827 
1063 0.943253 -0.0131851 
1399 0.921497 -0.0670091 
1691 0.892665 -0.0111715 
1736 0.942579 -0.0318367 
1737 0.944008 0.127059 
1738 0.928419 -0.0830463 
1739 0.882567 0.130936 
1740 0.892514 0.0311382 
1687 0.900474 0.00796235 
1688 0.886306 0.0613171 
1689 0.888205 -0.11212 
1690 0.944311 0.0524806 
1692 0.901169 0.245269 
1639 0.922406 0.102599 
1640 0.875574 -0.161692 
1641 0.868796 -0.00203133 
1642 0.903329 -0.0110965 
1643 0.891945 0.169581 
1644 0.909407 0.116234 
1591 0.926498 -0.0452718 
1592 0.893687 0.0314688 
1593 0.920447 -0.17309 
1594 0.888762 0.0283364 
1595 0.920322 -0.0835783 
1596 0.911104 0.0933997 
1543 0.912376 0.0980592 
1544 0.926036 -0.139128 
1545 0.907051 0.00198767 
1546 0.91603 -0.15991 
1547 0.925379 0.0158619 
1548 0.914014 0.0340896 
1495 0.887831 -0.0314373 
1496 0.859125 0.0355058 
1497 0.883879 -0.12857 
1498 0.897358 -0.0136391 
1499 0.872827 -0.148271 
1500 0.891176 0.0541884 
1447 0.946244 0.0777798 
1448 0.914041 -0.191306 
1449 0.927163 0.0148455 
1450 0.888039 -0.156551 
1451 0.958931 -0.175527 
1452 0.834242 0.122838 
1735 0.901709 0.0574134 
2028 0.894615 0.0707308 
2072 0.927853 0.0672078 
2073 0.907466 -0.0665407 
2074 0.903977 0.12869 
2075 0.908438 -0.0238193 
2076 0.89919 0.214439 
2023 0.918591 0.105175 
2024 0.903057 -0.0803131 
2025 0.895628 0.105295 
2026 0.906169 0.00703481 
2027 0.876026 0.213326 
1975 0.91353 -0.00722578 
1976 0.906555 0.135253 
1977 0.911433 -0.0983118 
1978 0.905189 0.0940828 
1979 0.898817 -0.0385177 
1980 0.862999 0.0806235 
1927 0.879946 0.16082 
1928 0.890323 -0.0196593 
1929 0.894421 0.0814521 
1930 0.899749 -0.0487882 
1931 0.918478 0.0429884 
1932 0.867667 -0.190639 
1879 0.888552 -0.073198 
1880 0.867821 0.0678126 
1881 0.903587 -0.0512435 
1882 0.917673 0.13925 
1883 0.940802 -0.0572795 
1884 0.906469 -0.0223318 
1831 0.924341 0.0469515 
1832 0.926357 -0.0573793 
1833 0.908698 0.137152 
1834 0.932772 -0.0329251 
1835 0.932888 0.024065 
1836 0.893606 -0.121594 
1783 0.918689 -0.0460605 
2119 0.940683 0.140002 
1784 0.919164 0.0783386 
1785 0.927031 0.0426727 
2121 0.894292 0.094739 
1786 0.894447 0.113725 
1787 0.932816 -0.0759646 
2123 0.87558 -0.00595438 
1788 0.936415 0.0773058 
2124 0.923746 0.0868862 
2071 0.937591 -0.0147648 
2408 0.904139 -0.0432505 
2409 0.914756 0.00469292 
2410 0.920369 -0.140201 
2411 0.88273 -0.259299 
2412 0.89425 -0.0235196 
2359 0.913406 -0.0266804 
2360 0.906282 0.114486 
2361 0.92817 -0.0582467 
2362 0.915933 0.0233461 
2363 0.890463 -0.275025 
2364 0.891033 -0.118321 
2311 0.915121 0.119423 
2312 0.927303 -0.040866 
2313 0.927712 0.0738688 
2314 0.913351 -0.0731291 
2315 0.899857 -0.226643 
2316 0.882511 0.084228 
2263 0.928244 -0.0119073 
2264 0.920223 0.102817 
2265 0.934729 -0.063785 
2266 0.920949 0.0708113 
2267 0.932332 -0.180994 
2268 0.90252 -0.0196124 
2215 0.913256 0.118119 
2216 0.925104 -0.0143455 
2217 0.9056 0.0887962 
2218 0.940976 -0.0669978 
2219 0.907676 -0.105633 
2220 0.922771 0.0714933 
2167 0.94659 0.0400577 
2168 0.908052 0.112784 
2169 0.903352 -0.0239532 
2170 0.896596 0.0900566 
2171 0.905941 -0.160308 
2172 0.948924 0.0320164 
2455 0.932059 -0.0450136 
2456 0.927953 0.0630891 
2120 0.910259 -0.0915254 
2457 0.926491 -0.13146 
2458 0.91227 -0.0139981 
2122 0.874033 -0.0856214 
2459 0.905833 -0.218078 
2460 0.890914 -0.136397 
2407 0.909856 0.102421 
14 0.885579 0.231295 
112 0.943814 0.0922635 
113 0.925723 -0.0294998 
114 0.904551 0.16171 
61 0.923812 0.12782 
62 0.907122 0.107643 
63 0.876191 0.170897 
64 0.89211 -0.119972 
65 0.939221 0.0399565 
66 0.93681 0.00981383 
13 0.923085 0.0490922 
15 0.851837 -0.025562 
16 0.901396 -0.018485 
17 0.935097 -0.0525235 
18 0.925901 0.130892 
301 0.905477 0.00886699 
302 0.903472 0.187321 
303 0.916291 -0.0773977 
304 0.902129 0.124793 
305 0.901348 0.0177156 
306 0.92855 0.0277568 
253 0.959812 0.089393 
254 0.921598 0.197172 
255 0.87797 0.091999 
256 0.893763 -0.0845411 
257 0.918278 0.100533 
258 0.910468 -0.0903293 
205 0.96131 0.112295 
206 0.894866 0.234233 
207 0.886988 -0.0448039 
208 0.911395 0.088018 
209 0.899858 -0.0558442 
210 0.9018 0.0502839 
157 0.939744 0.0921684 
158 0.927519 0.118786 
159 0.877156 0.11054 
160 0.90526 -0.0409842 
161 0.907589 0.101347 
162 0.902287 -0.0045947 
109 0.953053 0.0581643 
110 0.901398 0.184626 
111 0.903508 -0.0325904 
351 0.907703 0.0704226 
687 0.918136 -0.106927 
448 0.954264 -0.0237297 
449 0.919064 6.20945e-06 
450 0.892821 -0.091505 
397 0.947559 -0.184307 
398 0.913946 0.0592283 
399 0.943925 -0.00469025 
400 0.94436 0.0947248 
401 0.90077 -0.105688 
402 0.914847 0.0258429 
349 0.954793 -0.151249 
685 0.897669 -0.0250023 
350 0.94924 -0.0220989 
686 0.917241 0.0933723 
352 0.904238 -0.0211704 
688 0.864143 0.117494 
353 0.934503 0.135531 
689 0.876175 -0.0783287 
354 0.927447 -0.0762615 
690 0.901249 0.0453812 
637 0.923617 0.0665688 
638 0.933034 -0.0359308 
639 0.904598 0.00744015 
640 0.887411 -0.0894086 
641 0.845147 0.0394656 
642 0.901052 -0.137566 
589 0.931698 -0.106745 
590 0.920479 0.0254493 
591 0.906237 -0.106402 
592 0.935232 0.00344648 
593 0.910938 -0.132775 
594 0.902606 0.0864593 
541 0.879597 -0.0583715 
542 0.87511 -0.153873 
543 0.922285 0.040914 
544 0.931608 -0.121116 
545 0.935841 -0.00284899 
546 0.890994 -0.039283 
493 0.875046 -0.144613 
494 0.90642 -0.0124157 
495 0.919669 -0.052513 
496 0.920605 0.0133034 
497 0.902522 -0.100834 
498 0.904264 0.091859 
445 0.896999 -0.108566 
446 0.957466 -0.0712772 
447 0.943582 0.0916298 
1024 0.879266 -0.00575594 
784 0.921258 0.145146 
785 0.930262 0.00327658 
786 0.913547 0.145903 
733 0.87768 0.0579112 
734 0.898095 -0.112314 
735 0.891059 0.0822206 
736 0.912989 -0.0753448 
737 0.914005 0.123286 
738 0.882166 -0.0351902 
1021 0.898139 0.27154 
1022 0.951357 0.0274911 
1023 0.957677 -0.0702867 
1025 0.879244 0.10125 
1026 0.891396 -0.127755 
973 0.883214 0.164382 
974 0.918012 0.113427 
975 0.89301 -0.0142336 
976 0.909877 0.150354 
977 0.877776 -0.0179895 
978 0.915503 0.0529367 
925 0.863268 0.234129 
926 0.931517 0.118952 
927 0.916822 0.210782 
928 0.924446 -0.0109102 
929 0.922099 0.152373 
930 0.884116 -0.0717108 
877 0.943079 0.0249952 
878 0.921965 0.200974 
879 0.904267 0.0204801 
880 0.861004 0.183341 
881 0.827505 -0.0650516 
882 0.88072 -0.0338914 
829 0.883039 0.0437475 
830 0.908805 -0.083227 
831 0.918396 0.0839787 
832 0.873216 0.0363291 
833 0.85641 0.188458 
834 0.945862 -0.119646 
781 0.911616 -0.174126 
782 0.882617 0.0176701 
783 0.916568 -0.0638167 
1361 0.912945 -0.0991652 
1120 0.937165 0.0118727 
1121 0.913889 0.0132893 
1122 0.874567 -0.0122968 
1069 0.951116 0.106042 
1405 0.860887 0.150915 
1070 0.905707 -0.103639 
1406 0.934759 -0.0642864 
1071 0.95024 -0.125877 
1407 0.913962 0.00510903 
1072 0.913977 0.0799571 
1408 0.897846 -0.0952306 
1073 0.89875 -0.106572 
1409 0.917676 0.0317808 
1074 0.892034 0.157105 
1410 0.919581 -0.102952 
1357 0.922281 0.0279959 
1358 0.932908 0.0691574 
1359 0.904537 -0.0687905 
1360 0.927525 0.016119 
1362 0.911045 0.000890993 
1309 0.932336 0.156093 
1310 0.951753 0.065431 
1311 0.915212 -0.0321932 
1312 0.933325 -0.0814492 
1313 0.938716 0.0259417 
1314 0.895216 -0.103371 
1261 0.905289 0.19586 
1262 0.937706 0.0443898 
1263 0.935809 -0.121224 
1264 0.922755 0.0484248 
1265 0.887291 -0.0976336 
1266 0.920054 -0.00598283 
1213 0.928983 0.217615 
1214 0.895393 0.111532 
1215 0.904849 -0.145333 
1216 0.95097 0.0190501 
1217 0.926227 0.110864 
1218 0.938297 -0.148442 
1165 0.902765 0.238783 
1166 0.898448 -0.125803 
1167 0.924502 -0.129957 
1168 0.923543 0.145396 
1169 0.905283 -0.0624755 
1170 0.859371 0.0413162 
1117 0.891317 0.185143 
1118 0.860307 -0.0226431 
1119 0.899792 -0.186576 
1698 0.943094 0.105536 
1456 0.932684 0.0435893 
1457 0.892863 -0.15578 
1458 0.865869 0.0866179 
1741 0.914131 -0.125073 
1742 0.921354 0.0223337 
1743 0.912749 -0.110414 
1744 0.929039 0.0801484 
1745 0.933239 0.0680603 
1746 0.897967 0.0911372 
1693 0.948036 -0.0458076 
1694 0.955549 -0.00434465 
1695 0.905013 0.0267922 
1696 0.885557 -0.123277 
1697 0.934597 0.109688 
1645 0.954248 -0.0493036 
1646 0.900408 0.148957 
1647 0.878341 -0.091197 
1648 0.917118 -0.0305323 
1649 0.93383 0.0511382 
1650 0.953789 0.108747 
1597 0.947765 -0.0675161 
1598 0.91863 0.0190258 
1599 0.881461 0.105259 
1600 0.930161 -0.095807 
1601 0.940194 0.115434 
1602 0.900149 -0.0576518 
1549 0.921436 -0.173592 
1550 0.917149 0.0453916 
1551 0.936993 -0.0399275 
1552 0.924004 0.0927402 
1553 0.927392 -0.11448 
1554 0.901771 -0.0945874 
1501 0.912931 -0.0401536 
1502 0.883326 -0.201208 
1503 0.916638 -0.0176802 
1504 0.92671 -0.0730715 
1505 0.886435 -0.0342899 
1506 0.902111 -0.170251 
1453 0.866055 -0.0884423 
1454 0.906341 -0.0761496 
1455 0.9306 -0.141826 
2128 0.887674 0.0727787 
1792 0.889046 -0.0111382 
1793 0.909825 0.0993816 
2129 0.909212 -0.0162607 
1794 0.931056 -0.0972837 
2130 0.945445 0.0310964 
2077 0.907349 -0.0973233 
2078 0.927255 -0.0840921 
2079 0.904742 -0.00593096 
2080 0.904727 -0.0797243 
2081 0.888574 0.0814203 
2082 0.918362 -0.160596 
2029 0.918414 -0.11798 
2030 0.929355 0.0610205 
2031 0.92031 -0.0632006 
2032 0.924303 0.076074 
2033 0.911059 -0.127169 
2034 0.914254 -0.0812579 
1981 0.874378 -0.166107 
1982 0.967206 0.0980962 
1983 0.935696 0.15151 
1984 0.943407 -0.0563231 
1985 0.927623 0.0226044 
1986 0.926002 -0.114735 
1933 0.906288 -0.111065 
1934 0.925441 0.217097 
1935 0.926901 -0.0375672 
1936 0.90014 0.051166 
1937 0.911361 -0.0764369 
1938 0.878346 0.125163 
1885 0.898785 -0.219538 
1886 0.910269 0.0498247 
1887 0.906666 0.0579459 
1888 0.928551 -0.0629938 
1889 0.896653 0.0619214 
1890 0.86928 -0.00445657 
1837 0.921325 -0.128395 
1838 0.934788 0.0752765 
1839 0.937866 -0.0429474 
1840 0.932405 0.122799 
1841 0.904849 -0.103827 
1842 0.877902 0.0995579 
2125 0.922337 -0.0994879 
1789 0.910632 -0.135649 
1790 0.910892 -0.0377744 
2126 0.909464 0.0346411 
1791 0.925036 0.0415703 
2127 0.916362 -0.121107 
2464 0.899296 -0.0324984 
2465 0.91938 0.11829 
2466 0.907405 -0.0515539 
2413 0.934394 -0.0225929 
2414 0.921902 0.126994 
2415 0.914937 -0.093967 
2416 0.914062 0.106322 
2417 0.899385 -0.0387955 
2418 0.918784 0.0300722 
2365 0.901087 0.0496125 
2366 0.881083 -0.0347706 
2367 0.89882 0.0580243 
2368 0.88976 -0.0840811 
2369 0.910423 0.0912632 
2370 0.933623 -0.0963264 
2317 0.88159 -0.0718752 
2318 0.919654 0.0682286 
2319 0.899397 -0.0522477 
2320 0.903554 0.109335 
2321 0.926807 -0.0544049 
2322 0.912098 0.0784108 
2269 0.874831 0.0830639 
2270 0.888832 -0.105916 
2271 0.937561 0.112694 
2272 0.922418 -0.00946996 
2273 0.865975 0.0359448 
2274 0.861524 -0.0538614 
2221 0.893586 -0.127194 
2222 0.902262 0.0584921 
2223 0.920993 0.0349149 
2224 0.939451 0.0925011 
2225 0.894351 -0.167322 
2226 0.867171 0.109619 
2173 0.916142 -0.00895874 
2174 0.909013 -0.106084 
2175 0.911936 0.0865285 
2176 0.906436 -0.00975448 
2177 0.929327 0.0760425 
2178 0.918051 -0.0697157 
2461 0.933107 0.0911756 
2462 0.91255 0.0674384 
2463 0.886767 0.121371 
21 0.895666 -0.0577348 
168 0.911756 -0.0123536 
115 0.892584 0.00740068 
116 0.883981 0.163975 
117 0.912816 -0.0672292 
118 0.911837 0.00932121 
119 0.925021 -0.096143 
120 0.931571 0.0303867 
67 0.910846 0.127562 
68 0.866201 -0.0287316 
69 0.848789 0.066527 
70 0.88925 -0.0858362 
71 0.900651 0.0253771 
72 0.900541 -0.11681 
19 0.883161 -0.083791 
20 0.887387 0.0686314 
22 0.928749 0.0752352 
23 0.905035 -0.130954 
24 0.888096 0.0726958 
307 0.912505 -0.109606 
308 0.92582 -9.95308e-06 
309 0.935698 -0.109975 
310 0.875363 0.107619 
311 0.908895 0.000863785 
312 0.896103 0.142894 
259 0.942435 0.0544537 
260 0.941194 -0.0735473 
261 0.934575 0.0388565 
262 0.921291 -0.0460751 
263 0.900237 0.0604163 
264 0.903208 -0.0541421 
211 0.931887 -0.0509951 
212 0.891798 0.0933256 
213 0.908057 0.0214161 
214 0.953998 0.0703799 
215 0.899991 -0.0629537 
216 0.915185 0.0984711 
163 0.894369 0.149678 
164 0.902196 -0.0132971 
165 0.887874 0.131763 
166 0.916889 -0.0956621 
167 0.949588 0.0411279 
358 0.936042 -0.0234382 
694 0.904931 0.0721298 
504 0.933056 0.0719247 
451 0.902128 0.0597136 
452 0.895215 -0.0591291 
453 0.913236 0.150684 
454 0.910325 -0.0381415 
455 0.895066 0.0290052 
456 0.885498 -0.0842908 
403 0.906881 -0.106224 
404 0.884476 0.110614 
405 0.900052 0.0202283 
406 0.929088 0.0591671 
407 0.899907 -0.165973 
408 0.867827 0.0827874 
355 0.912628 -0.0148505 
691 0.930189 -0.000992607 
356 0.907859 -0.103514 
692 0.930398 0.0974757 
357 0.903725 0.0934131 
693 0.933857 -0.0356001 
359 0.915474 0.10618 
695 0.908722 -0.0737962 
360 0.919342 -0.0721478 
696 0.898253 0.00482127 
643 0.918402 0.116357 
644 0.932371 0.0185539 
645 0.929349 0.155407 
646 0.948181 0.0115558 
647 0.881434 0.0503392 
648 0.910041 -0.066499 
595 0.930554 -0.0159259 
596 0.906167 0.157325 
597 0.944863 0.0475833 
598 0.890368 0.156793 
599 0.919462 -0.0489374 
600 0.931006 0.0738968 
547 0.906094 0.128366 
548 0.921409 -0.0246566 
549 0.89707 0.10313 
550 0.857942 0.0779997 
551 0.869299 0.204508 
552 0.925537 -0.0349378 
499 0.914006 -0.0413266 
500 0.904851 0.0987502 
501 0.909408 -0.0184549 
502 0.915622 0.201893 
503 0.926273 -0.0226256 
1031 0.91093 0.0536796 
840 0.896416 0.0638811 
787 0.94066 -0.0321533 
788 0.916309 0.0404169 
789 0.942979 0.00415094 
790 0.931981 0.0464984 
791 0.923632 -0.142873 
792 0.902566 0.0905403 
739 0.919452 0.089468 
740 0.941407 -0.0456468 
741 0.92173 0.088822 
742 0.923223 -0.0204164 
743 0.924189 0.00888902 
744 0.909133 -0.169135 
1027 0.918029 0.042256 
1028 0.91259 -0.104869 
1029 0.902524 -0.00499984 
1030 0.872595 -0.15404 
1032 0.934098 0.00254989 
979 0.911743 -0.115845 
980 0.945194 0.0265098 
981 0.905207 -0.142299 
982 0.91863 0.0528487 
983 0.932602 0.0194555 
984 0.926018 0.0954679 
931 0.930209 0.0482459 
932 0.92793 -0.111227 
933 0.932036 0.0328093 
934 0.91187 -0.0681073 
935 0.93353 0.136083 
936 0.931606 -0.00398447 
883 0.924626 -0.0376654 
884 0.922206 0.0801661 
885 0.909943 -0.099042 
886 0.897881 0.0381131 
887 0.933415 0.0296862 
888 0.88102 0.10934 
835 0.927986 0.0959157 
836 0.937278 -0.0321948 
837 0.920819 0.0384758 
838 0.947259 -0.105457 
839 0.913441 0.0308883 
1368 0.963334 -0.0605222 
1176 0.914549 0.0586348 
1123 0.86754 0.193408 
1124 0.885333 -0.0721763 
1125 0.896812 -0.0335837 
1126 0.89225 -0.231883 
1127 0.913197 0.101138 
1128 0.875172 0.159791 
1075 0.855833 -0.0456311 
1411 0.901616 0.101083 
1076 0.914385 -0.00973555 
1412 0.934583 0.0188248 
1077 0.872919 -0.196948 
1413 0.937859 0.0846599 
1078 0.879419 -0.0939381 
1414 0.890764 0.0642831 
1079 0.953641 0.0451198 
1415 0.883555 0.176529 
1080 0.930581 0.0537519 
1416 0.888817 -0.00900867 
1363 0.939066 -0.111445 
1364 0.929178 0.0934118 
1365 0.92547 0.0210608 
1366 0.905747 0.198594 
1367 0.871972 0.0379133 
1315 0.909228 -0.000603172 
1316 0.895667 -0.112314 
1317 0.926666 0.113514 
1318 0.935787 0.0295899 
1319 0.921375 0.1646 
1320 0.957688 -0.0470246 
1267 0.894094 -0.122786 
1268 0.891655 0.0176728 
1269 0.947631 -0.00738793 
1270 0.937853 0.10088 
1271 0.919053 0.14157 
1272 0.914278 -0.0491728 
1219 0.932864 -0.00799704 
1220 0.89778 -0.0846508 
1221 0.900578 0.049901 
1222 0.926965 -0.0130285 
1223 0.928038 0.162458 
1224 0.93251 0.0718122 
1171 0.891204 -0.0261985 
1172 0.911935 0.0527346 
1173 0.934189 -0.110771 
1174 0.969044 -0.0215729 
1175 0.898072 0.19759 
1512 0.907719 -0.0574089 
1459 0.903616 0.111682 
1460 0.930931 0.00564852 
1461 0.954031 -0.0585153 
1462 0.903021 0.215864 
1463 0.889504 0.0035213 
1464 0.873159 0.120959 
1747 0.915977 -0.134525 
1748 0.961008 -0.0552286 
1749 0.957457 -0.087846 
1750 0.896176 0.149698 
1751 0.898566 0.0457511 
1752 0.914868 0.0927369 
1699 0.90341 0.00861144 
1700 0.92016 -0.210822 
1701 0.956357 -0.0605686 
1702 0.892899 0.0132895 
1703 0.891476 0.161412 
1704 0.90106 -0.0417496 
1651 0.921542 -0.161583 
1652 0.90119 -0.0432154 
1653 0.917347 -0.0945943 
1654 0.950786 0.060408 
1655 0.912168 -0.0872729 
1656 0.910802 0.0218239 
1603 0.927182 -0.0856222 
1604 0.922201 -0.0727551 
1605 0.923532 0.0983719 
1606 0.922991 -0.139488 
1607 0.944998 -0.0111698 
1608 0.931532 -0.0851128 
1555 0.917174 -0.0723437 
1556 0.913195 0.154516 
1557 0.89659 -0.0055535 
1558 0.909632 -0.0159032 
1559 0.919772 -0.0961317 
1560 0.913895 0.0256699 
1507 0.948012 0.155454 
1508 0.936616 -0.0117076 
1509 0.898334 0.0306872 
1510 0.963126 -0.00321577 
1511 0.926613 0.0903799 
1848 0.888251 -0.0140425 
1795 0.887822 0.0236666 
2131 0.928672 -0.119136 
1796 0.897089 -0.00576777 
2132 0.867598 0.0489592 
2133 0.896546 0.0497922 
1797 0.914726 0.0713286 
1798 0.954974 -0.0260176 
2134 0.920461 0.0766156 
2135 0.936917 -0.0507166 
1799 0.944679 0.06878 
1800 0.923665 -0.0949707 
2136 0.93551 0.0785472 
2083 0.935988 -0.0673946 
2084 0.924319 -0.0154147 
2085 0.882468 0.165273 
2086 0.924441 0.0289637 
2087 0.930906 0.111347 
2088 0.935115 -0.0151427 
2035 0.912727 -0.039784 
2036 0.909561 0.144587 
2037 0.924552 -0.00633571 
2038 0.891296 0.144931 
2039 0.917315 0.0320616 
2040 0.935473 0.100533 
1987 0.944038 0.121336 
1988 0.909986 -0.00312412 
1989 0.906737 0.0364692 
1990 0.922251 0.0319755 
1991 0.875999 0.0559614 
1992 0.904793 -0.123707 
1939 0.917481 0.0480081 
1940 0.918344 0.0411106 
1941 0.9311 -0.00531339 
1942 0.958468 -0.0115337 
1943 0.917696 -0.228898 
1944 0.8822 -0.00272099 
1891 0.885095 0.205036 
1892 0.933444 -0.000161505 
1893 0.928247 0.13054 
1894 0.918489 -0.102443 
1895 0.920471 -0.202867 
1896 0.88086 -0.155835 
1843 0.918769 0.0495767 
1844 0.913233 0.12342 
1845 0.961228 0.0189301 
1846 0.897721 -0.0419134 
1847 0.888708 -0.193356 
2323 0.902585 -0.0658845 
2184 0.918797 0.0159631 
2467 0.9238 0.0370872 
2468 0.875968 -0.0681984 
2469 0.895218 0.185199 