ITEM: TIMESTEP
10000
ITEM: NUMBER OF ATOMS
2496
ITEM: BOX BOUNDS pp pp pp
-6.7490100000000002e+00 1.6294900000000001e+02
8.8879199999999994e+00 1.5221199999999999e+02
-2.0000000000000001e-01 2.0000000000000001e-01
ITEM: ATOMS id c_1[1] c_1[2] 
1 0.898905 0.0880061 
2 0.882283 -0.0736662 
3 0.934665 0.055122 
4 0.88472 -0.150274 
5 0.872502 -0.0176604 
6 0.903964 0.0011896 
289 0.898348 0.0738534 
290 0.908711 -0.0707023 
291 0.893634 0.0693746 
292 0.909809 -0.0987669 
293 0.920046 0.0676651 
294 0.932252 0.0330703 
241 0.906815 -0.114884 
242 0.907986 0.0341063 
243 0.9036 -0.0686012 
244 0.863426 0.0523103 
245 0.882581 -0.113848 
246 0.928016 0.13513 
193 0.90865 0.0273343 
194 0.918275 -0.10757 
195 0.921401 0.073628 
196 0.898688 -0.10295 
197 0.896621 0.0827729 
198 0.904656 -0.0988159 
145 0.904641 -0.0955795 
146 0.898125 0.0262922 
147 0.906853 -0.127781 
148 0.926623 0.0542063 
149 0.905935 -0.0676223 
150 0.882236 0.0291297 
97 0.895208 0.0521593 
98 0.904328 -0.129001 
99 0.878558 0.0375675 
100 0.898376 -0.102867 
101 0.90931 0.0172035 
102 0.888383 -0.05458 
49 0.898654 -0.065888 
50 0.887473 0.0625178 
51 0.87281 -0.0892552 
52 0.879712 0.0739217 
53 0.913526 -0.163058 
54 0.937112 0.0795338 
673 0.942356 -0.00796083 
337 0.886392 -0.0674619 
338 0.921519 0.129247 
674 0.903802 -0.125466 
339 0.917892 -0.0668538 
675 0.925301 0.0450747 
340 0.921568 0.0667001 
676 0.908006 -0.0817438 
341 0.897408 -0.0214167 
677 0.909907 0.0697427 
342 0.93529 0.0666518 
678 0.870033 -0.0706683 
625 0.942732 -0.0945037 
626 0.94463 0.0738063 
627 0.932488 -0.0902203 
628 0.929679 -0.005461 
629 0.922445 -0.0841436 
630 0.917951 0.0642168 
577 0.881269 0.0889547 
578 0.914611 -0.0532047 
579 0.922652 -0.00135423 
580 0.91687 -0.0908068 
581 0.918072 0.00373432 
582 0.929655 -0.104803 
529 0.892074 -0.00480831 
530 0.872229 0.0962212 
531 0.893065 -0.121161 
532 0.93426 0.0786645 
533 0.936346 -0.0992431 
534 0.915005 -0.0480536 
481 0.927802 0.142242 
482 0.890298 -0.101083 
483 0.883036 0.0482943 
484 0.925194 0.00191603 
485 0.907274 0.0273636 
486 0.894567 -0.140149 
433 0.91395 -0.0486125 
434 0.910491 0.0643463 
435 0.913554 -0.0702373 
436 0.909973 0.133592 
437 0.956376 -0.00443775 
438 0.90005 0.00734693 
385 0.929013 0.0973486 
386 0.910221 -0.0548834 
387 0.920084 0.0862932 
388 0.954189 0.00951128 
389 0.937738 0.0961861 
390 0.918181 -0.173525 
1010 0.888608 0.113482 
1009 0.89588 0.0955235 
1011 0.916717 -0.0356723 
1012 0.894262 0.0752046 
1013 0.916194 -0.0639399 
1014 0.929468 0.0648702 
961 0.932025 0.138432 
962 0.922067 -0.0708993 
963 0.938238 0.0183905 
964 0.934746 -0.0772314 
965 0.921954 0.102771 
966 0.936885 -0.0434936 
913 0.878562 -0.0741704 
914 0.91246 0.112729 
915 0.948727 -0.102467 
916 0.944014 0.021829 
917 0.919787 -0.00950849 
918 0.895868 0.0489116 
865 0.861544 0.0672865 
866 0.928363 0.0224989 
867 0.914141 0.0871901 
868 0.923321 -0.0488956 
869 0.949431 0.048442 
870 0.942049 -0.0883271 
817 0.880076 -0.0855735 
818 0.881902 0.0897504 
819 0.924638 -0.0165661 
820 0.912639 0.0700088 
821 0.899395 -0.105417 
822 0.922637 0.0180074 
769 0.938043 -0.00832683 
770 0.942797 -0.183704 
771 0.933114 0.0368695 
772 0.899777 -0.100092 
773 0.922157 0.0409694 
774 0.883348 -0.146178 
721 0.941116 -0.094668 
722 0.920907 -0.109648 
723 0.895488 -0.154115 
724 0.932097 0.0522018 
725 0.903413 -0.0765369 
726 0.925466 0.0687988 
1347 0.924962 0.126167 
1345 0.900011 0.229563 
1346 0.898084 0.0363479 
1348 0.933768 -0.0877942 
1349 0.906759 0.0199055 
1350 0.913074 -0.108063 
1297 0.91484 0.189894 
1298 0.901789 0.183515 
1299 0.907549 -0.0980039 
1300 0.891289 -0.0572642 
1301 0.908005 -0.114759 
1302 0.916633 0.0479622 
1249 0.891882 0.229921 
1250 0.868197 -0.0221974 
1251 0.888866 -0.0557791 
1252 0.91524 -0.167845 
1253 0.918505 0.0219671 
1254 0.928892 -0.0505691 
1201 0.912959 0.167454 
1202 0.906097 0.0263136 
1203 0.931078 -0.0623294 
1204 0.909027 0.0521406 
1205 0.922291 -0.115374 
1206 0.928671 0.0607043 
1153 0.899081 0.166476 
1154 0.933259 -0.0861159 
1155 0.922742 0.106841 
1156 0.911893 -0.0929924 
1157 0.896246 0.0335964 
1158 0.936654 -0.0263078 
1105 0.909911 0.226685 
1106 0.924294 0.0522335 
1107 0.905443 -0.0158277 
1108 0.894069 0.131942 
1109 0.931937 -0.0939318 
1110 0.891093 0.00159228 
1393 0.909166 0.245587 
1057 0.907407 0.202046 
1058 0.929273 -0.0528493 
1394 0.941305 0.124714 
1059 0.899151 0.154805 
1395 0.899472 0.0729231 
1060 0.919366 -0.0313662 
1396 0.881298 0.114427 
1061 0.925074 0.0286179 
1397 0.93486 -0.144959 
1062 0.910035 -0.148156 
1398 0.936512 -0.0264 
1684 0.897755 0.0738073 
1681 0.922139 0.155284 
1682 0.91943 -0.0130494 
1683 0.890186 -0.131257 
1685 0.939382 0.0153853 
1686 0.877401 0.0158806 
1633 0.894347 0.209534 
1634 0.890292 -0.104787 
1635 0.908319 -0.0724651 
1636 0.946979 -0.0935986 
1637 0.898073 0.148798 
1638 0.876198 -0.0573199 
1585 0.907189 0.234832 
1586 0.90255 0.0980654 
1587 0.942642 -0.150764 
1588 0.921133 -0.0378055 
1589 0.883171 -0.0214898 
1590 0.902823 0.153111 
1537 0.928473 0.18141 
1538 0.93014 -0.0496837 
1539 0.878968 0.0583941 
1540 0.883479 -0.0572331 
1541 0.918463 0.0640579 
1542 0.888322 -0.0981496 
1489 0.925355 0.154345 
1490 0.923931 0.044785 
1491 0.92409 0.0176462 
1492 0.887996 0.127369 
1493 0.91338 -0.12244 
1494 0.927911 -0.0203859 
1441 0.928676 0.169215 
1442 0.941177 -0.00835795 
1443 0.909075 0.170726 
1444 0.906167 -0.0839004 
1445 0.92818 -0.060788 
1446 0.947453 -0.0984774 
1729 0.951836 0.102711 
1730 0.919614 -0.14391 
1731 0.905702 0.0848212 
1732 0.904165 -0.00829546 
1733 0.905818 0.0758519 
1734 0.894986 -0.159602 
2021 0.881397 0.0502664 
2017 0.906974 0.122446 
2018 0.920007 -0.0188832 
2019 0.875712 0.127348 
2020 0.886395 0.0232169 
2022 0.934292 -0.0436342 
1969 0.913064 0.0642272 
1970 0.895914 0.175073 
1971 0.948107 0.0336473 
1972 0.890744 0.20338 
1973 0.925825 0.0649961 
1974 0.881574 0.110914 
1921 0.938823 0.115216 
1922 0.961416 0.00230092 
1923 0.903057 0.192871 
1924 0.92811 -0.0221899 
1925 0.95008 0.0963707 
1926 0.941239 -0.0620865 
1873 0.93995 -0.0550245 
1874 0.920665 0.027899 
1875 0.890706 -0.0484444 
1876 0.868301 0.0326451 
1877 0.878821 -0.163011 
1878 0.954161 0.0732139 
1825 0.908703 0.118594 
1826 0.900117 -0.111955 
1827 0.899299 0.0507859 
1828 0.866541 -0.149788 
1829 0.89326 0.031411 
1830 0.912396 0.0299148 
2113 0.932681 0.166884 
1777 0.89136 0.00923333 
1778 0.889657 0.0557298 
1779 0.898553 -0.0824504 
2115 0.916486 0.0959914 
1780 0.899055 0.0776773 
1781 0.907176 -0.11337 
2117 0.920836 0.0518337 
1782 0.910542 0.0847118 
2065 0.927988 0.0243715 
2066 0.942536 0.071463 
2067 0.92612 -0.0392834 
2068 0.918132 0.156291 
2069 0.917874 -0.0310265 
2070 0.92502 0.0387935 
2358 0.935479 0.0115561 
2353 0.929397 -0.129723 
2354 0.935531 0.0408209 
2355 0.90963 -0.105809 
2356 0.907786 0.147387 
2357 0.906862 -0.0500851 
2305 0.891962 0.113049 
2306 0.880585 -0.041071 
2307 0.878287 0.0496467 
2308 0.88116 -0.0806255 
2309 0.87829 0.0314818 
2310 0.910144 -0.0543363 
2257 0.896266 -0.0305085 
2258 0.883585 0.107071 
2259 0.950667 -0.0963294 
2260 0.884743 -0.0311042 
2261 0.879807 -0.137407 
2262 0.88027 0.0267254 
2209 0.907138 0.0965129 
2210 0.938164 -0.0236601 
2211 0.909899 0.108113 
2212 0.890459 -0.130421 
2213 0.922495 -0.0667671 
2214 0.933166 -0.0439596 
2161 0.884537 0.0354799 
2162 0.886038 0.138899 
2163 0.868024 0.0127845 
2164 0.919954 0.120636 
2165 0.949059 -0.118868 
2166 0.933211 0.0114517 
2449 0.91346 -0.0573657 
2450 0.901688 0.100084 
2114 0.889836 -0.0417527 
2451 0.89744 -0.145601 
2452 0.958433 0.0472345 
2116 0.923547 0.0510591 
2453 0.949396 -0.112612 
2454 0.915211 0.0554909 
2118 0.942551 -0.0117204 
2401 0.924442 0.0554457 
2402 0.871222 -0.13239 
2403 0.873048 0.00388541 
2404 0.92933 0.0370225 
2405 0.942186 0.0543467 
2406 0.934682 -0.117426 
7 0.94505 0.0871821 
56 0.906989 0.128006 
57 0.940903 -0.14471 
58 0.921945 -0.0915918 
59 0.893435 -0.0474157 
60 0.879299 0.192284 
8 0.943187 -0.138273 
9 0.87965 -0.0251581 
10 0.899112 -0.0903034 
11 0.905102 0.0406052 
12 0.935739 0.122622 
295 0.921844 0.139533 
296 0.929295 -0.0971787 
297 0.93897 -0.00926951 
298 0.940419 -0.0907805 
299 0.878683 0.139796 
300 0.865793 0.266933 
247 0.903069 0.00545681 
248 0.911866 0.0732084 
249 0.922441 -0.110908 
250 0.924893 -0.0452511 
251 0.904061 -0.0483532 
252 0.879277 0.310646 
199 0.885677 0.0556022 
200 0.904024 0.022994 
201 0.944357 -0.0550307 
202 0.913196 -0.156687 
203 0.876263 0.119168 
204 0.910535 0.239758 
151 0.896928 -0.116635 
152 0.911689 0.133221 
153 0.911082 -0.163607 
154 0.909017 -0.155275 
155 0.905145 -0.0132132 
156 0.886546 0.304726 
103 0.907272 0.138476 
104 0.908222 -0.0467773 
105 0.899446 -0.158115 
106 0.933894 -0.167244 
107 0.873612 0.157309 
108 0.906012 0.29696 
55 0.885211 0.0180645 
344 0.897673 0.0701256 
680 0.917228 -0.159959 
392 0.925573 -0.0704209 
393 0.929646 0.0813689 
394 0.923422 -0.0517953 
395 0.936192 0.0385963 
396 0.911793 0.149932 
343 0.935392 -0.0654088 
679 0.902344 -0.0495769 
345 0.92167 -0.072601 
681 0.88845 0.149435 
346 0.932194 0.0403152 
682 0.882996 0.0516358 
347 0.932267 -0.0568116 
683 0.942631 -0.102754 
348 0.947376 0.162293 
684 0.947672 0.0449632 
631 0.930124 -0.0825738 
632 0.908195 0.00902569 
633 0.905147 -0.122158 
634 0.920461 0.0944712 
635 0.916648 -0.155953 
636 0.941021 0.000419527 
583 0.933022 0.0475517 
584 0.917479 -0.0753093 
585 0.908318 0.0560413 
586 0.924288 -0.143693 
587 0.909608 -0.141054 
588 0.869597 0.185062 
535 0.900955 -0.142122 
536 0.920217 -0.00494504 
537 0.878689 -0.132088 
538 0.862428 -0.0716243 
539 0.877192 -0.183559 
540 0.943149 0.137212 
487 0.911047 -0.0340048 
488 0.890801 -0.20316 
489 0.88108 -0.0985533 
490 0.877447 -0.210289 
491 0.920331 -0.0112983 
492 0.902414 0.169025 
439 0.918763 -0.175033 
440 0.923099 -0.0292845 
441 0.912693 -0.127517 
442 0.914522 0.0209496 
443 0.90917 -0.115328 
444 0.906936 0.161259 
391 0.887653 -0.0223027 
1017 0.920904 -0.165533 
728 0.891356 0.00575456 
729 0.86791 0.0113254 
730 0.886764 0.184949 
731 0.92618 -0.116732 
732 0.936382 -0.0624495 
1015 0.920461 -0.0618891 
1016 0.912017 0.0212164 
1018 0.920859 0.0571712 
1019 0.9556 -0.0982989 
1020 0.923333 -0.0941968 
967 0.954671 0.0520833 
968 0.910808 -0.0817915 
969 0.915654 0.00279567 
970 0.949164 -0.0154534 
971 0.931393 -0.0510806 
972 0.896023 0.0739797 
919 0.940626 -0.133364 
920 0.938404 -0.0189725 
921 0.896714 -0.0484066 
922 0.920727 0.0654455 
923 0.904565 -0.0997503 
924 0.901686 -0.000666039 
871 0.90268 0.075191 
872 0.904905 -0.0832244 
873 0.905944 0.0697657 
874 0.893937 0.0204596 
875 0.918602 -0.175906 
876 0.920156 0.0922192 
823 0.854083 -0.0215355 
824 0.930917 0.188575 
825 0.95127 -0.0140229 
826 0.914051 0.117867 
827 0.914585 -0.140918 
828 0.844139 -0.0884227 
775 0.873218 0.063134 
776 0.93777 0.0451007 
777 0.908369 0.120148 
778 0.952903 -0.00524791 
779 0.874735 -0.177668 
780 0.901456 0.0231462 
727 0.905104 -0.162421 
1354 0.89863 0.150906 
1064 0.926909 -0.137515 
1400 0.905477 0.100787 
1065 0.901196 0.0585452 
1401 0.902672 -0.0526 
1066 0.899168 -0.0313964 
1402 0.921212 0.162507 
1067 0.924574 -0.204108 
1403 0.946091 -0.0307084 
1068 0.90209 0.0715877 
1404 0.90716 -0.121887 
1351 0.912548 0.0498636 
1352 0.891833 -0.0761034 
1353 0.928734 0.0287901 
1355 0.909162 -0.115205 
1356 0.931255 -0.0523586 
1303 0.923204 -0.0870108 
1304 0.922978 0.0643289 
1305 0.92261 -0.118495 
1306 0.924522 0.170609 
1307 0.880193 0.00855606 
1308 0.92002 -0.19037 
1255 0.928611 0.0771205 
1256 0.916146 -0.0937003 
1257 0.925266 0.00976553 
1258 0.966052 0.0371083 
1259 0.934374 -0.155215 
1260 0.924422 -0.0261334 
1207 0.920073 -0.0349416 
1208 0.900681 0.012004 
1209 0.899575 -0.137487 
1210 0.942308 0.0374715 
1211 0.943717 -0.130283 
1212 0.933659 -0.055755 
1159 0.911163 0.108863 
1160 0.90004 -0.111963 
1161 0.87999 0.0283256 
1162 0.935834 -0.0191273 
1163 0.936183 -0.118921 
1164 0.946055 0.0699402 
1111 0.88957 -0.0500005 
1112 0.901547 0.066627 
1113 0.913886 -0.0772131 
1114 0.888382 0.0767608 
1115 0.920758 -0.158635 
1116 0.932754 -0.0271803 
1063 0.92317 0.0175073 
1399 0.899039 -0.0482179 
1691 0.920792 0.0165917 
1736 0.891082 -0.0977507 
1737 0.897733 0.0739119 
1738 0.943223 0.089423 
1739 0.906614 -0.0550038 
1740 0.899213 0.166257 
1687 0.890552 -0.178622 
1688 0.923477 0.0433022 
1689 0.919969 -0.112313 
1690 0.92936 0.0769764 
1692 0.928396 0.149932 
1639 0.920487 -0.00103926 
1640 0.925936 -0.083019 
1641 0.923587 0.0181122 
1642 0.899631 0.0410127 
1643 0.947899 -0.0257976 
1644 0.92084 0.202482 
1591 0.930186 -0.154041 
1592 0.935808 -0.000213816 
1593 0.935729 -0.0598815 
1594 0.929263 0.144571 
1595 0.91397 -0.044203 
1596 0.895959 -0.0337408 
1543 0.859853 -0.0188619 
1544 0.921434 -0.00888555 
1545 0.91421 0.0869091 
1546 0.941064 0.0463997 
1547 0.917418 -0.152003 
1548 0.900672 0.0868943 
1495 0.932889 -0.0610648 
1496 0.905089 0.137878 
1497 0.907084 0.00305524 
1498 0.917581 0.109857 
1499 0.9261 -0.121241 
1500 0.904156 -0.0753654 
1447 0.901451 0.149561 
1448 0.897304 -0.0235256 
1449 0.909274 0.109311 
1450 0.919414 0.0799244 
1451 0.912169 -0.152324 
1452 0.919074 0.0583129 
1735 0.89134 -0.00484803 
2028 0.911965 0.0695955 
2072 0.916294 0.147026 
2073 0.935317 -0.0283805 
2074 0.923268 0.0707717 
2075 0.903474 -0.133201 
2076 0.912323 -0.0315483 
2023 0.920225 0.142581 
2024 0.9496 0.0630466 
2025 0.935619 0.126631 
2026 0.911932 -0.104368 
2027 0.914617 -0.240667 
1975 0.918539 -0.0698917 
1976 0.89805 0.0559157 
1977 0.889913 -0.0461517 
1978 0.948598 0.0779066 
1979 0.902451 -0.265334 
1980 0.869122 -0.0896885 
1927 0.880025 0.102296 
1928 0.89125 -0.100502 
1929 0.872327 0.0901855 
1930 0.893728 -0.0260783 
1931 0.885136 -0.243716 
1932 0.892215 0.0785809 
1879 0.898323 0.0502693 
1880 0.877635 0.145579 
1881 0.888348 -0.0872913 
1882 0.888841 0.112887 
1883 0.919579 -0.193082 
1884 0.928864 -0.0790976 
1831 0.916907 0.223226 
1832 0.877564 -0.0522268 
1833 0.889043 0.0911448 
1834 0.898421 -0.0193071 
1835 0.940258 -0.193838 
1836 0.918031 0.0641459 
2119 0.916163 0.0864227 
1783 0.876781 -0.0187578 
1784 0.899226 0.0971061 
1785 0.904375 -0.0787431 
2121 0.916999 -0.0208038 
2122 0.883304 -0.0681535 
1786 0.934541 0.201243 
1787 0.953057 -0.134832 
2123 0.926902 -0.120521 
1788 0.897196 -0.0403759 
2124 0.939901 0.122684 
2071 0.919776 0.0468257 
2408 0.882795 -0.0857976 
2409 0.895814 0.151109 
2410 0.90108 0.0251609 
2411 0.94153 -0.121667 
2412 0.881264 0.032604 
2359 0.91213 -0.0803581 
2360 0.932381 0.10879 
2361 0.892214 0.0203027 
2362 0.902486 0.145903 
2363 0.894395 -0.192465 
2364 0.891185 -0.032685 
2311 0.903105 0.0678651 
2312 0.903502 -0.00690125 
2313 0.89236 0.151565 
2314 0.867818 -0.0111627 
2315 0.897411 -0.196816 
2316 0.890993 0.161312 
2263 0.913829 -0.0233797 
2264 0.912037 0.114608 
2265 0.916953 0.00212011 
2266 0.900019 0.117822 
2267 0.897168 -0.188016 
2268 0.908066 -0.0167741 
2215 0.95289 0.101741 
2216 0.928902 -0.0498886 
2217 0.931332 0.101785 
2218 0.898929 -0.0971655 
2219 0.909022 -0.204894 
2220 0.91909 0.0857835 
2167 0.929373 -0.0176312 
2168 0.943121 -0.00622312 
2169 0.897512 -0.0800334 
2170 0.912037 -0.00725973 
2171 0.901843 -0.218593 
2172 0.912469 -0.0028021 
2455 0.925466 -0.0283233 
2456 0.889341 -0.0612499 
2120 0.896932 -0.0962072 
2457 0.863925 -0.10015 
2458 0.894835 0.119406 
2459 0.904421 -0.0697815 
2460 0.900694 0.0146908 
2407 0.939516 0.0432931 
14 0.873307 0.124036 
112 0.912663 0.0295163 
113 0.94785 -0.112537 
114 0.904141 0.0713524 
61 0.925381 0.0893279 
62 0.900753 0.0415162 
63 0.893981 0.145924 
64 0.918318 -0.048289 
65 0.88203 -0.0155219 
66 0.873378 -0.115466 
13 0.919013 -0.106346 
15 0.883445 0.0308458 
16 0.928788 0.0903687 
17 0.885405 -0.094867 
18 0.933625 -0.0381762 
301 0.884252 -0.144703 
302 0.877067 -0.0328945 
303 0.938243 -0.044646 
304 0.938915 0.0357718 
305 0.93741 -0.142207 
306 0.902692 0.0834702 
253 0.896114 0.0758 
254 0.92534 -0.1443 
255 0.891418 0.00965192 
256 0.906294 -0.0950241 
257 0.922838 -0.0194381 
258 0.902587 -0.107268 
205 0.920131 -0.0597764 
206 0.897444 0.025123 
207 0.914376 -0.113684 
208 0.904766 0.0499017 
209 0.90007 -0.0362264 
210 0.911367 0.0534754 
157 0.932275 0.156151 
158 0.943914 -0.0194485 
159 0.903007 0.0364573 
160 0.916026 -0.0677805 
161 0.906107 0.10634 
162 0.950199 -0.0274237 
109 0.917245 0.0755817 
110 0.906701 0.10919 
111 0.918755 -0.0817536 
351 0.918303 0.0472767 
687 0.914609 -0.147425 
448 0.898154 -0.0821287 
449 0.909437 0.0662525 
450 0.911318 -0.0560855 
397 0.887394 -0.0852556 
398 0.886233 0.0126546 
399 0.895255 -0.0924212 
400 0.910841 0.0433908 
401 0.912393 -0.0230842 
402 0.937695 0.0770614 
349 0.896329 0.0318686 
685 0.9264 -0.0899097 
350 0.896917 -0.145889 
686 0.917048 -0.0228273 
352 0.938015 -0.0683298 
688 0.930333 0.0170432 
353 0.912384 0.062186 
689 0.9064 -0.118162 
354 0.927234 -0.0193464 
690 0.905966 0.0720758 
637 0.93654 0.117286 
638 0.920104 -0.0678145 
639 0.923014 0.0211378 
640 0.924143 -0.147792 
641 0.934498 0.0117184 
642 0.92708 -0.061753 
589 0.860435 -0.00580781 
590 0.882278 0.0786394 
591 0.902906 0.0136812 
592 0.921694 0.0469954 
593 0.929221 -0.0764871 
594 0.906659 0.0767347 
541 0.845787 0.0583485 
542 0.871618 -0.0788591 
543 0.918325 0.171036 
544 0.914254 -0.0344537 
545 0.935239 0.0497815 
546 0.920694 -0.0458076 
493 0.877228 -0.158848 
494 0.890651 0.0568192 
495 0.903314 -0.0384375 
496 0.906631 0.0471565 
497 0.923973 -0.0369257 
498 0.932779 0.0625538 
445 0.891502 0.0702252 
446 0.900643 -0.152165 
447 0.905818 0.0181433 
1024 0.913948 -0.0828755 
784 0.904333 0.103232 
785 0.890665 -0.0688608 
786 0.907433 0.0884199 
733 0.925385 0.0269007 
734 0.937961 -0.147664 
735 0.925669 -0.0570262 
736 0.912023 -0.0681362 
737 0.888256 0.0464917 
738 0.883306 -0.0794345 
1021 0.906011 0.112812 
1022 0.943767 0.0275761 
1023 0.934407 0.0784493 
1025 0.94267 0.0231005 
1026 0.921601 -0.138409 
973 0.944242 -0.0862072 
974 0.936742 0.10016 
975 0.898022 -0.0534177 
976 0.911441 0.0307787 
977 0.902187 -0.0820297 
978 0.910707 -0.00316564 
925 0.891698 0.0160018 
926 0.896596 -0.166217 
927 0.924072 0.0185745 
928 0.944023 -0.0977413 
929 0.925061 0.0520126 
930 0.918695 -0.0726914 
877 0.889014 -0.113087 
878 0.904078 -0.0475911 
879 0.9341 -0.129129 
880 0.896944 0.0794009 
881 0.914409 -0.0249192 
882 0.897763 0.164022 
829 0.902387 0.086774 
830 0.923779 -0.119483 
831 0.91261 -0.0158674 
832 0.8948 -0.0625014 
833 0.900638 0.124901 
834 0.876303 -0.0167247 
781 0.902791 -0.087059 
782 0.93163 -0.0479708 
783 0.927393 -0.130952 
1361 0.901858 -0.101872 
1120 0.923771 -0.0512775 
1121 0.916798 0.0442471 
1122 0.906225 -0.0276288 
1069 0.87711 0.0318274 
1405 0.912504 -0.0210515 
1070 0.922984 0.0525866 
1406 0.890474 -0.0947337 
1071 0.934904 -0.0594625 
1407 0.929892 0.0876051 
1072 0.942246 0.0542922 
1408 0.925435 -0.112351 
1073 0.930501 -0.118152 
1409 0.908143 0.0462109 
1074 0.924952 0.0240194 
1410 0.895221 -0.0738515 
1357 0.896857 -0.136897 
1358 0.902266 0.0734198 
1359 0.922615 0.0213194 
1360 0.925561 0.104329 
1362 0.926637 0.0203268 
1309 0.936183 -0.0153541 
1310 0.925831 -0.0961468 
1311 0.917931 0.0711504 
1312 0.932719 -0.040009 
1313 0.930823 0.0495209 
1314 0.9217 -0.0506617 
1261 0.916793 -0.187454 
1262 0.91329 -0.0825111 
1263 0.937369 -0.143251 
1264 0.912476 0.0322087 
1265 0.92893 0.00397106 
1266 0.921337 0.145609 
1213 0.929457 -0.0124736 
1214 0.929962 -0.198615 
1215 0.93232 -0.0657546 
1216 0.907777 -0.134078 
1217 0.925953 0.0767222 
1218 0.915296 0.0578832 
1165 0.920285 -0.0778368 
1166 0.912868 0.0291498 
1167 0.896313 -0.0880106 
1168 0.917337 0.00275057 
1169 0.933985 -0.0236801 
1170 0.92273 0.189707 
1117 0.937985 0.0857888 
1118 0.910794 -0.0721833 
1119 0.921896 0.0650808 
1698 0.877007 -0.136743 
1456 0.869624 -0.0124036 
1457 0.921627 -0.0500802 
1458 0.924356 0.114481 
1741 0.906385 0.0161405 
1742 0.888246 0.116264 
1743 0.908059 -0.0596242 
1744 0.91847 0.00948545 
1745 0.935712 -0.1128 
1746 0.888683 0.0594599 
1693 0.886937 0.145357 
1694 0.894003 -0.000996583 
1695 0.877113 0.0962218 
1696 0.887438 -0.15088 
1697 0.897373 -0.0630533 
1645 0.902225 -0.021131 
1646 0.895217 0.117082 
1647 0.857282 -0.0886426 
1648 0.912729 -0.0395934 
1649 0.891683 -0.152535 
1650 0.920036 -0.0391104 
1597 0.909484 0.141436 
1598 0.918519 -0.0922558 
1599 0.905611 0.0455224 
1600 0.929942 -0.110737 
1601 0.948045 0.104344 
1602 0.923732 -0.11235 
1549 0.88766 -0.11128 
1550 0.900818 -0.0232131 
1551 0.927964 -0.158737 
1552 0.879228 0.120233 
1553 0.87291 0.0044427 
1554 0.854046 0.0769886 
1501 0.89891 0.0517605 
1502 0.898233 -0.128534 
1503 0.890584 -0.00498577 
1504 0.870488 -0.160437 
1505 0.890511 0.115057 
1506 0.926744 -0.0125101 
1453 0.91434 -0.082289 
1454 0.933505 0.075887 
1455 0.870167 -0.169471 
1792 0.926216 -0.0811205 
2128 0.8949 0.0936629 
1793 0.923494 0.0942946 
2129 0.883645 -0.0202827 
1794 0.934747 -0.0340374 
2130 0.947145 0.0490323 
2077 0.918082 0.0441071 
2078 0.916769 -0.0858484 
2079 0.914814 0.0345601 
2080 0.887897 -0.0832922 
2081 0.909432 0.0780284 
2082 0.958149 -0.0115153 
2029 0.90591 -0.0763134 
2030 0.916081 0.0623515 
2031 0.878764 -0.0673934 
2032 0.946097 -0.0523532 
2033 0.886099 0.0975068 
2034 0.947468 0.0851368 
1981 0.90446 0.127753 
1982 0.916628 -0.0535429 
1983 0.918529 0.115571 
1984 0.91767 -0.147899 
1985 0.909644 0.0887303 
1986 0.885688 0.11712 
1933 0.910283 -0.0403397 
1934 0.880365 0.125984 
1935 0.908416 -0.00764167 
1936 0.912666 -0.0527368 
1937 0.927316 0.0872096 
1938 0.920179 -0.00328813 
1885 0.89363 0.0253116 
1886 0.898083 -0.0401488 
1887 0.880628 0.129056 
1888 0.917359 -0.0611198 
1889 0.93249 0.0659861 
1890 0.910237 -0.0212498 
1837 0.908568 -0.096312 
1838 0.906485 0.0852107 
1839 0.896311 -0.04767 
1840 0.903109 0.0743015 
1841 0.913983 0.035892 
1842 0.934812 -0.003191 
2125 0.916388 -0.0875898 
1789 0.913627 0.112208 
1790 0.914845 -0.0562423 
2126 0.918026 0.0536176 
2127 0.924024 -0.10616 
1791 0.914799 0.0828093 
2464 0.916565 -0.0214492 
2465 0.937105 0.147115 
2466 0.954155 -0.111665 
2413 0.900185 -0.112728 
2414 0.913371 0.0408782 
2415 0.916491 -0.0595901 
2416 0.908616 0.0793444 
2417 0.947944 0.0794677 
2418 0.91477 0.0137994 
2365 0.890506 0.128489 
2366 0.925111 -0.116053 
2367 0.931877 0.0180582 
2368 0.933414 -0.0942022 
2369 0.903019 0.0355717 
2370 0.930467 -0.00837722 
2317 0.900546 0.0243579 
2318 0.936167 0.0435303 
2319 0.92489 -0.0288739 
2320 0.938285 0.00086889 
2321 0.942111 -0.0729411 
2322 0.899836 0.134621 
2269 0.897962 0.137352 
2270 0.933327 -0.0441219 
2271 0.951021 0.134644 
2272 0.961891 0.0242178 
2273 0.950834 0.0519702 
2274 0.887495 0.0614079 
2221 0.926732 -0.0809493 
2222 0.895415 0.0928962 
2223 0.943707 0.0430297 
2224 0.920537 0.130097 
2225 0.919437 0.0100151 
2226 0.907657 0.198392 
2173 0.894101 0.0653241 
2174 0.885279 -0.0583371 
2175 0.877959 0.0801397 
2176 0.90871 -0.0293058 
2177 0.906718 0.106647 
2178 0.854365 0.0361606 
2461 0.930011 -0.0209895 
2462 0.911614 -0.104759 
2463 0.921737 0.130001 
21 0.891255 0.0629214 
168 0.931692 0.0529744 
115 0.92001 -0.0884948 
116 0.905371 0.0414151 
117 0.905199 -0.0773975 
118 0.908263 0.0701978 
119 0.917216 0.115973 
120 0.892314 0.161684 
67 0.895991 0.0328471 
68 0.935392 -0.130106 
69 0.927397 0.0633027 
70 0.927126 -0.0435057 
71 0.916725 0.1531 
72 0.882111 0.132846 
19 0.925243 -0.0830462 
20 0.885148 0.0914327 
22 0.933943 0.109289 
23 0.939629 -0.0627986 
24 0.943131 0.0963029 
307 0.898956 -0.0292686 
308 0.914467 0.0541215 
309 0.930489 -0.0476398 
310 0.906757 0.0549412 
311 0.914754 0.185989 
312 0.932296 -0.0127844 
259 0.900069 0.0939381 
260 0.926015 -0.0839247 
261 0.926794 0.0774077 
262 0.942253 -0.0333091 
263 0.893843 0.172295 
264 0.923044 0.126959 
211 0.921681 -0.109972 
212 0.89118 0.045935 
213 0.940484 -0.015661 
214 0.913619 0.0803108 
215 0.940548 0.128054 
216 0.934051 0.115571 
163 0.916654 0.0105093 
164 0.912666 -0.0849768 
165 0.885771 0.0623617 
166 0.8833 -0.0309394 
167 0.911033 0.152737 
358 0.943752 -0.0987947 
694 0.906934 0.208497 
504 0.911223 0.0372584 
451 0.914143 0.0468486 
452 0.899137 -0.0737405 
453 0.922539 0.11166 
454 0.914682 -0.0607332 
455 0.90326 0.204438 
456 0.861735 0.132745 
403 0.912751 -0.105814 
404 0.902997 0.0559218 
405 0.906806 -0.0657432 
406 0.916445 0.000364743 
407 0.909159 0.217589 
408 0.89476 -0.0363801 
355 0.93103 0.0746743 
691 0.896488 -0.0240363 
356 0.916574 -0.0923121 
692 0.903926 0.0858474 
357 0.920411 0.0597598 
693 0.930794 0.00561123 
359 0.918775 0.13774 
695 0.913193 0.0892527 
360 0.916539 0.0776851 
696 0.945705 -0.0177347 
643 0.926228 0.12733 
644 0.94285 -0.0225659 
645 0.913255 0.0882679 
646 0.928636 -0.0367558 
647 0.892822 0.0713711 
648 0.980142 -0.0128284 
595 0.940967 -0.0382296 
596 0.885822 0.104017 
597 0.931262 -0.0545176 
598 0.957666 -0.0871741 
599 0.926863 0.0346247 
600 0.938916 0.000310353 
547 0.884232 0.0120687 
548 0.876503 -0.0571436 
549 0.86308 0.0582692 
550 0.9173 -0.197795 
551 0.941057 0.0864219 
552 0.919101 0.133537 
499 0.904975 -0.123806 
500 0.915518 0.0966373 
501 0.890492 -0.0716021 
502 0.907614 -0.00745841 
503 0.880973 0.243861 
1031 0.901067 0.0802247 
840 0.929009 -0.0436983 
787 0.888834 -0.127179 
788 0.881239 0.0675833 
789 0.926242 -0.0274952 
790 0.910857 0.0501232 
791 0.914883 -0.0274747 
792 0.936225 0.0765936 
739 0.891005 0.0703858 
740 0.891526 -0.11552 
741 0.897044 0.101663 
742 0.901693 0.0444393 
743 0.908034 0.197096 
744 0.923658 -0.00318397 
1027 0.936141 0.0243361 
1028 0.917033 -0.0312094 
1029 0.937501 0.0821428 
1030 0.888484 -0.0192259 
1032 0.910665 -0.118049 
979 0.916075 -0.063823 
980 0.908166 0.111182 
981 0.899002 -0.0265383 
982 0.901781 0.0907431 
983 0.89935 -0.110456 
984 0.890257 0.0307859 
931 0.922274 0.114204 
932 0.925342 -0.0190914 
933 0.900606 0.0877851 
934 0.880004 -0.0409245 
935 0.887414 0.0862114 
936 0.919968 -0.152651 
883 0.919773 -0.00648976 
884 0.903797 0.121041 
885 0.868351 -0.11959 
886 0.896818 0.00268126 
887 0.905341 -0.0610352 
888 0.916579 -0.0216977 
835 0.894282 0.116446 
836 0.886278 -0.039829 
837 0.891001 0.113471 
838 0.937817 -0.189476 
839 0.944669 -0.0115874 
1368 0.88677 0.0285331 
1176 0.943567 0.0277732 
1123 0.924684 0.0898127 
1124 0.946403 -0.045775 
1125 0.862378 0.035895 
1126 0.932312 -0.151444 
1127 0.912631 -0.0439668 
1128 0.876317 -0.13718 
1075 0.949027 -0.00483046 
1411 0.877695 -0.0223171 
1076 0.948847 0.0578385 
1412 0.894669 -0.238229 
1077 0.914768 -0.11658 
1413 0.947573 -0.0091423 
1078 0.89884 0.0647291 
1414 0.943788 -0.00310198 
1079 0.864339 -0.128494 
1415 0.931928 0.134912 
1080 0.910396 -0.0225352 
1416 0.945345 -0.0965492 
1363 0.904916 -0.111797 
1364 0.912286 -0.0459729 
1365 0.939647 -0.0722413 
1366 0.886374 0.136656 
1367 0.902592 0.000225508 
1315 0.925876 0.111843 
1316 0.961056 -0.0744055 
1317 0.910457 -0.0373698 
1318 0.91661 -0.0383606 
1319 0.873763 0.0444412 
1320 0.888731 -0.0473305 
1267 0.950187 0.00595245 
1268 0.913254 0.0448833 
1269 0.925023 -0.117897 
1270 0.92837 0.041021 
1271 0.913882 -0.157684 
1272 0.901166 0.103048 
1219 0.890086 0.112433 
1220 0.876415 -0.0816823 
1221 0.926356 0.0450971 
1222 0.90749 -0.0665982 
1223 0.920312 0.0243593 
1224 0.915505 -0.0895124 
1171 0.876136 -0.101933 
1172 0.831554 0.0106781 
1173 0.892825 -0.0340919 
1174 0.925008 -0.00530442 
1175 0.932408 -0.0939497 
1512 0.913199 -0.237931 
1459 0.900693 -0.164064 
1460 0.946429 -0.0536181 
1461 0.928238 -0.0903558 
1462 0.909246 -0.0186705 
1463 0.919201 -0.105853 
1464 0.909424 -0.0832495 
1747 0.866796 -0.166014 
1748 0.862124 -0.0878984 
1749 0.881372 -0.123217 
1750 0.923787 0.0263029 
1751 0.889461 -0.207004 
1752 0.87974 -0.10789 
1699 0.837496 -0.0362159 
1700 0.847619 -0.15786 
1701 0.913517 0.124963 
1702 0.894753 -0.101221 
1703 0.915192 -0.033804 
1704 0.907284 -0.128333 
1651 0.868238 -0.209099 
1652 0.890651 0.0862315 
1653 0.882511 -0.0566232 
1654 0.898199 0.00442616 
1655 0.922258 -0.0927043 
1656 0.928628 0.0733517 
1603 0.928552 0.0166094 
1604 0.884327 -0.137848 
1605 0.900738 0.03186 
1606 0.895503 -0.081455 
1607 0.905033 0.0489032 
1608 0.910715 -0.146434 
1555 0.856167 -0.0715776 
1556 0.896135 0.00916155 
1557 0.88905 -0.0511963 
1558 0.937937 0.0283876 
1559 0.910859 -0.175967 
1560 0.933583 -0.161089 
1507 0.862736 0.105531 
1508 0.901335 -0.129362 
1509 0.932056 0.063283 
1510 0.911725 -0.125357 
1511 0.916285 -0.0901144 
1848 0.906131 -0.165603 
2131 0.93361 -0.0835883 
1795 0.920871 -0.00995929 
1796 0.887594 -0.190134 
2132 0.882883 0.1493 
1797 0.919095 -0.0865661 
1798 0.888195 -0.110284 
2134 0.932447 0.0496383 
2135 0.910755 -0.099825 
1799 0.895248 0.0734626 
1800 0.906715 -0.171571 
2136 0.912065 0.0742045 
2083 0.943497 0.0124945 
2084 0.911525 0.0207119 
2085 0.882669 0.160672 
2086 0.931315 -0.0823985 
2087 0.93222 0.0700671 
2088 0.895229 0.014716 
2035 0.936139 -0.0428523 
2036 0.90911 0.207134 
2037 0.897235 -0.00218959 
2038 0.886535 0.104903 
2039 0.908449 -0.0234833 
2040 0.925597 0.15387 
1987 0.919487 -0.117318 
1988 0.893991 0.0156106 
1989 0.910067 0.134364 
1990 0.917813 -0.0084076 
1991 0.896133 0.155705 
1992 0.907398 -0.131213 
1939 0.90291 -0.11819 
1940 0.942685 0.0767506 
1941 0.933873 -0.0901001 
1942 0.846265 0.177607 
1943 0.854906 0.0379671 
1944 0.906216 -0.170826 
1891 0.96136 -0.00213521 
1892 0.936848 0.00830764 
1893 0.920964 0.00863131 
1894 0.872456 -0.0146197 
1895 0.866401 0.202823 
1896 0.919262 -0.159656 
1843 0.937664 -0.063881 
1844 0.940756 0.0400753 
1845 0.921867 -0.108022 
1846 0.911178 0.138407 
1847 0.909664 0.0083248 
2323 0.889499 -0.0812572 
2184 0.900957 -0.133752 
2467 0.909365 -0.0464241 
2468 0.91117 0.0152549 
2469 0.907275 0.194874 
2133 0.895771 -0.014577 