ITEM: TIMESTEP
2000
ITEM: NUMBER OF ATOMS
2496
ITEM: BOX BOUNDS pp pp pp
-6.6913400000000003e+00 1.6289099999999999e+02
8.9582599999999992e+00 1.5214200000000000e+02
-2.0000000000000001e-01 2.0000000000000001e-01
ITEM: ATOMS id c_1[1] c_1[2] 
1 0.948591 0.0460916 
2 0.901393 -0.212592 
3 0.900622 0.0140208 
4 0.930239 -0.0651205 
5 0.887931 0.183925 
6 0.894247 0.0133445 
289 0.898798 0.134877 
290 0.919699 -0.0509173 
291 0.930432 0.0764472 
292 0.895483 -0.144605 
293 0.886672 -0.0267452 
294 0.933246 -0.110951 
241 0.905741 -0.0427183 
242 0.874323 0.052886 
243 0.883757 -0.112053 
244 0.919784 0.0363704 
245 0.930182 -0.110659 
246 0.908462 0.00722317 
193 0.914858 0.0544302 
194 0.898906 -0.130756 
195 0.908293 0.0400705 
196 0.929247 -0.0854695 
197 0.933312 0.0242242 
198 0.909085 -0.0689425 
145 0.881333 -0.108342 
146 0.904546 0.0424604 
147 0.896177 -0.119837 
148 0.905668 0.0126474 
149 0.945555 -0.102194 
150 0.937189 0.060641 
97 0.934719 0.0886088 
98 0.907256 -0.166186 
99 0.941805 -0.0654047 
100 0.92981 -0.0417597 
101 0.904121 0.139718 
102 0.920765 -0.0293415 
49 0.921883 -0.0141838 
50 0.899512 -0.0290956 
51 0.909808 -0.190743 
52 0.960582 0.0847724 
53 0.911062 0.0895689 
54 0.902885 0.180083 
673 0.875337 0.0772306 
337 0.917021 -0.00396317 
338 0.896685 0.137613 
674 0.917774 -0.0585175 
339 0.912883 -0.0141637 
675 0.91772 0.0503601 
340 0.900351 0.0423365 
676 0.919166 -0.0367424 
341 0.896396 -0.141071 
677 0.903974 0.0686537 
342 0.908016 0.0398097 
678 0.903213 0.0650788 
625 0.932724 -0.0834828 
626 0.886442 0.0172304 
627 0.948912 -0.0659363 
628 0.933145 0.127031 
629 0.956899 -0.0168532 
630 0.904925 0.135672 
577 0.937091 0.0195609 
578 0.933577 -0.0779203 
579 0.908198 0.142394 
580 0.944015 -0.00971414 
581 0.952201 -0.00837824 
582 0.942394 0.0654323 
529 0.936336 -0.0357171 
530 0.937681 0.0459214 
531 0.898472 -0.00709741 
532 0.885733 0.0476568 
533 0.880854 -0.0808491 
534 0.947339 0.173316 
481 0.929187 0.112744 
482 0.905029 -0.0195783 
483 0.91192 0.0965251 
484 0.858603 -0.0120322 
485 0.885802 0.162726 
486 0.930535 0.14397 
433 0.896721 -0.00222103 
434 0.912569 0.193786 
435 0.928319 0.023993 
436 0.908019 0.142629 
437 0.898917 0.0354175 
438 0.898294 0.142906 
385 0.884097 0.133758 
386 0.90717 0.0694732 
387 0.908636 0.118612 
388 0.916594 -0.0467743 
389 0.918013 0.109023 
390 0.886023 -0.0736514 
1010 0.900222 -0.149247 
1009 0.891411 -0.181487 
1011 0.934899 0.0885142 
1012 0.921628 -0.0165867 
1013 0.911472 -0.122104 
1014 0.918378 0.0771155 
961 0.90518 -0.201942 
962 0.912466 0.0419078 
963 0.927554 0.106763 
964 0.917438 -0.111306 
965 0.915585 0.0060972 
966 0.921545 -0.0854456 
913 0.900523 -0.180554 
914 0.927791 0.00840699 
915 0.907655 0.146685 
916 0.927055 -0.0238374 
917 0.924873 -0.0974966 
918 0.910657 0.000298463 
865 0.89016 -0.140525 
866 0.935358 0.111541 
867 0.921354 0.116161 
868 0.92427 -0.116164 
869 0.903351 0.034791 
870 0.901252 -0.165308 
817 0.977615 -0.0521337 
818 0.937652 0.103966 
819 0.932242 0.125521 
820 0.927546 0.0494138 
821 0.904484 -0.100439 
822 0.884102 -0.0454382 
769 0.888706 0.157347 
770 0.947376 0.0640122 
771 0.928449 0.17235 
772 0.895471 -0.0414482 
773 0.93147 0.00575863 
774 0.871806 -0.175625 
721 0.8595 -0.0145242 
722 0.856202 0.137921 
723 0.902445 -0.0301182 
724 0.9158 0.114268 
725 0.935738 -0.0891501 
726 0.939838 0.0256381 
1347 0.900933 0.15228 
1345 0.832524 0.205193 
1346 0.843747 0.0596499 
1348 0.888308 0.00386297 
1349 0.920133 0.11634 
1350 0.940389 0.127126 
1297 0.871679 -0.0287259 
1298 0.864515 0.211042 
1299 0.94493 -0.0242214 
1300 0.914588 0.128206 
1301 0.937044 0.0357186 
1302 0.92891 0.214633 
1249 0.902241 0.10858 
1250 0.938067 -0.0204994 
1251 0.93461 0.0343985 
1252 0.957437 -0.0228737 
1253 0.917997 0.182087 
1254 0.915998 0.0405803 
1201 0.862328 -0.154429 
1202 0.902931 0.0243859 
1203 0.959044 -0.0498251 
1204 0.926717 0.0204741 
1205 0.941408 -0.0337274 
1206 0.922467 0.0977072 
1153 0.904023 -0.117472 
1154 0.920789 0.0186464 
1155 0.930096 0.096678 
1156 0.949586 -0.101137 
1157 0.927234 0.0611391 
1158 0.947453 -0.107826 
1105 0.922275 -0.139545 
1106 0.914117 -0.0145585 
1107 0.934009 0.106198 
1108 0.905446 -0.0103352 
1109 0.880385 -0.100886 
1110 0.894438 -0.0243397 
1393 0.88246 -0.0326229 
1057 0.914434 -0.120346 
1058 0.924638 -0.0423358 
1394 0.882703 0.235192 
1059 0.91748 0.102086 
1395 0.862333 0.0507786 
1060 0.882136 -0.131153 
1396 0.863565 0.159029 
1061 0.922429 -0.00858547 
1397 0.884059 -0.0553673 
1062 0.884836 -0.047248 
1398 0.901817 0.196803 
1684 0.928901 0.142528 
1681 0.875579 0.0111421 
1682 0.87928 0.0730855 
1683 0.926327 -0.122201 
1685 0.921212 0.0295884 
1686 0.904938 -0.0606939 
1633 0.899118 0.0710119 
1634 0.909337 -0.0626753 
1635 0.864157 0.133053 
1636 0.910012 0.150242 
1637 0.918839 0.0605291 
1638 0.927176 -0.11787 
1585 0.933851 0.0319951 
1586 0.884269 0.101352 
1587 0.897387 0.0128766 
1588 0.880347 0.21665 
1589 0.914892 0.0450821 
1590 0.931276 0.0228741 
1537 0.924043 0.196584 
1538 0.934655 -0.0749166 
1539 0.895595 0.169316 
1540 0.915155 -0.000986507 
1541 0.921125 0.075599 
1542 0.873332 -0.0321545 
1489 0.901064 0.0893925 
1490 0.923819 0.0905359 
1491 0.887997 -0.00525606 
1492 0.887204 0.166498 
1493 0.924355 -0.0389503 
1494 0.941906 0.191483 
1441 0.879894 0.126427 
1442 0.894824 0.0267764 
1443 0.884521 0.211144 
1444 0.900237 -0.0255574 
1445 0.893618 0.148294 
1446 0.911308 0.119878 
1729 0.899288 0.150179 
1730 0.887679 -0.1041 
1731 0.892466 -0.04273 
1732 0.916526 0.0347006 
1733 0.932287 0.106664 
1734 0.929233 -0.0868715 
2021 0.91021 0.0566157 
2017 0.907213 0.0433193 
2018 0.897058 -0.146828 
2019 0.879024 -0.0119472 
2020 0.901731 -0.0561711 
2022 0.914261 -0.0709797 
1969 0.902787 -0.0578223 
1970 0.911901 0.064124 
1971 0.907004 -0.101976 
1972 0.908113 0.126467 
1973 0.917116 -0.0664046 
1974 0.91063 0.0321993 
1921 0.907862 0.107019 
1922 0.895373 -0.028617 
1923 0.912903 0.104311 
1924 0.90416 -0.0636998 
1925 0.904999 0.0238019 
1926 0.92968 -0.0958438 
1873 0.900721 -0.0591138 
1874 0.902089 0.0916889 
1875 0.925419 -0.0358134 
1876 0.924451 0.0977204 
1877 0.913694 -0.0604332 
1878 0.911505 0.0505931 
1825 0.917651 0.0493316 
1826 0.933731 -0.131762 
1827 0.888457 0.0975529 
1828 0.887402 0.0531283 
1829 0.933718 0.0489116 
1830 0.922684 -0.0692862 
2113 0.908469 0.0439707 
1777 0.933379 -0.034695 
2114 0.894381 -0.0543445 
1778 0.891779 0.0277456 
1779 0.895816 -0.16623 
2115 0.929639 0.0224322 
1780 0.896192 0.0976964 
2116 0.911872 -0.122197 
1781 0.9552 0.046593 
2117 0.92256 -0.0443143 
1782 0.926653 0.0525334 
2118 0.933877 -0.134331 
2065 0.929268 -0.107922 
2066 0.917588 0.0369595 
2067 0.901497 -0.121385 
2068 0.932958 -0.00017024 
2069 0.925903 -0.122061 
2070 0.92632 0.00241139 
2358 0.893225 0.015997 
2353 0.945447 -0.116736 
2354 0.909447 -0.00286491 
2355 0.892614 -0.0599133 
2356 0.885784 0.0633301 
2357 0.915394 -0.155881 
2305 0.905136 -0.00587943 
2306 0.918233 -0.100081 
2307 0.915477 0.114649 
2308 0.922071 -0.00991215 
2309 0.919309 0.0243798 
2310 0.908015 -0.153885 
2257 0.875043 -0.147021 
2258 0.907439 0.0634304 
2259 0.903517 -0.00946009 
2260 0.91284 0.135047 
2261 0.930796 -0.00351841 
2262 0.923967 0.042576 
2209 0.901854 0.0335306 
2210 0.91659 -0.0557968 
2211 0.926159 0.0864626 
2212 0.931316 -0.0116933 
2213 0.932061 0.122274 
2214 0.883738 -0.0406281 
2161 0.91309 -0.0761244 
2162 0.916025 0.0522601 
2163 0.904284 -0.0900404 
2164 0.92777 0.0427652 
2165 0.907323 -0.0846973 
2166 0.930771 0.0442084 
2449 0.878042 -0.0720648 
2450 0.894792 0.0385577 
2451 0.873122 -0.17551 
2452 0.881433 -0.0225795 
2453 0.845432 -0.0868132 
2454 0.900733 0.170615 
2401 0.910144 0.0714863 
2402 0.875337 -0.0938969 
2403 0.888132 0.029037 
2404 0.88348 -0.174064 
2405 0.869247 0.0436977 
2406 0.914091 -0.0220541 
7 0.894508 -0.00407242 
56 0.922938 -0.0195961 
57 0.929839 -0.0983863 
58 0.915672 0.0508675 
59 0.899502 -0.0962653 
60 0.927272 0.185595 
8 0.935202 -0.148645 
9 0.935005 0.0524059 
10 0.90786 -0.0807374 
11 0.91072 0.0664854 
12 0.907742 0.167926 
295 0.895858 0.0742967 
296 0.905307 -0.105492 
297 0.871554 0.0652618 
298 0.893905 0.0141407 
299 0.935058 -0.189171 
300 0.951601 -0.0495805 
247 0.900392 -0.0637662 
248 0.885536 0.0769543 
249 0.921615 -0.137053 
250 0.902332 0.0756444 
251 0.943377 -0.179961 
252 0.923657 -0.0875776 
199 0.925146 0.0792514 
200 0.912932 -0.131347 
201 0.906865 -0.0331649 
202 0.950181 -0.0950137 
203 0.903191 -0.101712 
204 0.905644 0.0434143 
151 0.919908 -0.02988 
152 0.913973 0.0274157 
153 0.9313 -0.165032 
154 0.910909 -0.0352961 
155 0.883559 -0.124174 
156 0.953092 0.0727461 
103 0.940538 0.0391723 
104 0.917235 -0.139966 
105 0.906888 -0.00632647 
106 0.888979 -0.16093 
107 0.900581 0.0252482 
108 0.912716 0.135991 
55 0.944066 -0.111443 
344 0.907724 0.0816761 
680 0.923982 -0.196818 
392 0.9088 0.00321078 
393 0.931015 0.0373359 
394 0.929821 -0.00280002 
395 0.922576 -0.164716 
396 0.929052 0.0499187 
343 0.931531 -0.0947364 
679 0.926781 -0.10928 
345 0.921574 -0.0965997 
681 0.878328 0.166504 
346 0.94661 0.0657402 
682 0.895808 -0.0269077 
347 0.925953 -0.1779 
683 0.868799 0.0985904 
348 0.933429 -0.0865187 
684 0.881486 0.015648 
631 0.959105 -0.00106881 
632 0.923313 -0.14979 
633 0.899097 -0.0229744 
634 0.87185 0.0921806 
635 0.919463 -0.0215956 
636 0.887788 0.107977 
583 0.922503 0.0290079 
584 0.909505 -0.126686 
585 0.917813 0.0778624 
586 0.928668 -0.00482677 
587 0.961889 -0.0313806 
588 0.908668 0.0441663 
535 0.937634 0.0825049 
536 0.93587 -0.0952007 
537 0.895256 -0.0989363 
538 0.924164 0.0776696 
539 0.902485 -0.165332 
540 0.858733 -0.0518686 
487 0.943348 0.0373153 
488 0.899708 -0.09909 
489 0.92738 0.00893626 
490 0.93299 0.0180746 
491 0.896432 -0.197463 
492 0.906037 0.0830496 
439 0.902287 -0.0460011 
440 0.960866 0.0929249 
441 0.932338 -0.0382259 
442 0.938026 0.136874 
443 0.93234 -0.0643029 
444 0.918582 -0.081911 
391 0.89057 0.0431152 
1017 0.916764 -0.0562466 
728 0.886365 -0.0695995 
729 0.903333 -0.0148305 
730 0.883751 0.156652 
731 0.906145 -0.0286127 
732 0.855796 0.117831 
1015 0.892908 0.0282723 
1016 0.897679 0.0989639 
1018 0.875893 0.0740827 
1019 0.94556 -0.0637993 
1020 0.941795 0.0218674 
967 0.933722 0.0528926 
968 0.919558 -0.150459 
969 0.937075 -0.0758583 
970 0.944266 -0.129023 
971 0.900001 0.113477 
972 0.910047 0.00115595 
919 0.895135 -0.0946786 
920 0.916028 -0.000171268 
921 0.915441 -0.231754 
922 0.945601 -0.0389051 
923 0.887561 -0.0512708 
924 0.883989 0.0757407 
871 0.933825 -0.00827019 
872 0.906538 -0.159845 
873 0.845764 0.0157124 
874 0.887923 -0.0735562 
875 0.912664 0.0589853 
876 0.873494 -0.0817837 
823 0.871971 -0.242555 
824 0.909829 -0.0705819 
825 0.893118 -0.0913803 
826 0.870012 0.120133 
827 0.915003 -0.0874425 
828 0.923237 0.0989813 
775 0.893796 -0.0985347 
776 0.920724 -0.135162 
777 0.877812 0.116414 
778 0.905752 -0.0537336 
779 0.861915 0.0991733 
780 0.907963 -0.000613753 
727 0.92489 -0.117169 
1354 0.914532 -0.0718738 
1064 0.893319 -0.00390766 
1400 0.905364 -0.191286 
1065 0.885838 0.15591 
1401 0.923894 -0.0686639 
1066 0.864567 0.00414058 
1402 0.881037 0.027757 
1067 0.884403 -0.14826 
1403 0.918905 -0.128717 
1068 0.938636 -0.0510458 
1404 0.922693 0.0114848 
1351 0.916941 -0.0507678 
1352 0.913696 -0.17056 
1353 0.89907 0.0315741 
1355 0.960429 -0.0108134 
1356 0.914781 0.0474344 
1303 0.924298 -0.0305588 
1304 0.954767 -0.114077 
1305 0.925091 -0.0359888 
1306 0.909909 0.120278 
1307 0.913118 -0.116234 
1308 0.931053 0.0772632 
1255 0.92498 -0.0551578 
1256 0.935493 -0.0940787 
1257 0.900127 0.141563 
1258 0.88695 -0.0134843 
1259 0.948736 -0.129475 
1260 0.883555 0.193365 
1207 0.948936 -0.0723933 
1208 0.931336 -0.0180753 
1209 0.923597 -0.0253596 
1210 0.908693 0.134777 
1211 0.921915 -0.156064 
1212 0.89344 0.075082 
1159 0.926614 -0.0352697 
1160 0.93955 -0.10035 
1161 0.905093 0.134531 
1162 0.907228 -0.0463653 
1163 0.926244 -0.12122 
1164 0.938419 0.174781 
1111 0.909734 -0.119178 
1112 0.934044 0.0531467 
1113 0.884089 -0.00724702 
1114 0.896294 0.133666 
1115 0.914649 -0.201994 
1116 0.911556 -0.0504218 
1063 0.901519 0.137363 
1399 0.933999 -0.11141 
1691 0.92311 -0.0653406 
1736 0.906912 -0.0248988 
1737 0.910312 0.104871 
1738 0.880888 -0.0433855 
1739 0.915678 0.0450864 
1740 0.92645 -0.134618 
1687 0.90975 -0.0738878 
1688 0.917312 0.0870036 
1689 0.934511 -0.0780573 
1690 0.928452 0.0749741 
1692 0.895487 -0.0111824 
1639 0.914605 0.0978768 
1640 0.927822 -0.0710027 
1641 0.912821 0.0267776 
1642 0.924224 -0.0638639 
1643 0.914631 0.0336064 
1644 0.892269 -0.091388 
1591 0.88372 -0.0788734 
1592 0.904304 0.0147917 
1593 0.941362 -0.0968761 
1594 0.939932 0.0903816 
1595 0.943838 -0.0523973 
1596 0.910462 0.0781404 
1543 0.916396 -0.0308892 
1544 0.938926 -0.121599 
1545 0.917513 0.0793964 
1546 0.920445 -0.0238757 
1547 0.885231 0.111906 
1548 0.86366 -0.114228 
1495 0.932055 0.018563 
1496 0.90619 -0.0411265 
1497 0.905473 -0.0998951 
1498 0.928291 0.0878201 
1499 0.91693 -0.0423293 
1500 0.880753 0.0681498 
1447 0.954861 -0.087353 
1448 0.916706 -0.194723 
1449 0.880881 0.0530059 
1450 0.907461 -0.0681963 
1451 0.91018 0.0489073 
1452 0.912547 -0.0765847 
1735 0.914447 0.0650064 
2028 0.939476 0.0605517 
2072 0.842577 0.0297057 
2073 0.881893 -0.171799 
2074 0.920086 0.0579215 
2075 0.918318 -0.0809734 
2076 0.924762 0.107937 
2023 0.949837 0.022817 
2024 0.891326 -0.16342 
2025 0.899651 0.0599289 
2026 0.908956 0.00934335 
2027 0.90233 0.139685 
1975 0.933354 -0.143809 
1976 0.943206 -0.0322876 
1977 0.878193 -0.0680152 
1978 0.910218 0.182056 
1979 0.914884 0.0404708 
1980 0.903428 0.151425 
1927 0.917293 0.0140254 
1928 0.883658 -0.0948087 
1929 0.873132 0.102817 
1930 0.910543 0.00587905 
1931 0.903712 0.0927564 
1932 0.912756 0.0440228 
1879 0.927645 -0.0680736 
1880 0.935506 0.0932815 
1881 0.915584 -0.0377306 
1882 0.889846 0.0948775 
1883 0.925888 -0.0267593 
1884 0.914023 0.183359 
1831 0.917004 0.0820752 
1832 0.917933 0.0153584 
1833 0.900484 0.129011 
1834 0.927748 -0.0517968 
1835 0.902132 0.13075 
1836 0.917125 -0.0454817 
1783 0.918306 -0.0501769 
2119 0.845395 0.0525558 
1784 0.919937 0.107905 
2120 0.884719 -0.0951837 
1785 0.895646 0.0254681 
2121 0.882661 -0.032 
1786 0.885343 0.0821316 
2122 0.904328 -0.120668 
1787 0.881882 -0.0774962 
2123 0.922986 0.0415954 
1788 0.899274 0.0489345 
2124 0.944974 0.0859091 
2071 0.894268 -0.0411762 
2408 0.857296 -0.13408 
2409 0.884777 -0.04159 
2410 0.901681 -0.0521838 
2411 0.946386 0.046312 
2412 0.939562 0.121183 
2359 0.908943 -0.0580962 
2360 0.928505 0.125711 
2361 0.933156 -0.0924253 
2362 0.920914 0.100414 
2363 0.926161 -0.0859493 
2364 0.945487 0.0782019 
2311 0.889007 0.112293 
2312 0.921362 -0.00110823 
2313 0.901097 0.123861 
2314 0.922407 -0.0598734 
2315 0.92893 -0.0462034 
2316 0.904 0.163269 
2263 0.882902 -0.0672088 
2264 0.881587 0.0602762 
2265 0.888681 -0.0187739 
2266 0.901132 0.13559 
2267 0.952742 -0.118285 
2268 0.933041 0.126872 
2215 0.946149 -0.0102579 
2216 0.906493 -0.0595642 
2217 0.93054 0.110769 
2218 0.934862 -0.0609477 
2219 0.916272 0.0238126 
2220 0.91272 0.167451 
2167 0.940875 -0.142097 
2168 0.956587 0.0668757 
2169 0.909169 -0.0837383 
2170 0.933008 -0.0125963 
2171 0.909135 -0.0968118 
2172 0.923492 0.16216 
2455 0.943917 -0.0408901 
2456 0.892171 0.0089201 
2457 0.879318 -0.206542 
2458 0.938292 0.00854479 
2459 0.907737 -0.0476982 
2460 0.919285 0.181791 
2407 0.915115 0.0902443 
14 0.916107 0.112989 
112 0.908019 0.0965065 
113 0.905073 -0.085086 
114 0.88107 0.0744847 
61 0.928515 0.0865246 
62 0.936708 0.00818489 
63 0.907554 0.118822 
64 0.915623 -0.092863 
65 0.903934 0.0482484 
66 0.900805 -0.13155 
13 0.931123 -0.0602148 
15 0.900065 -0.0399815 
16 0.880147 0.0737813 
17 0.891608 -0.0577416 
18 0.903721 0.0505466 
301 0.94213 0.000241003 
302 0.941128 0.115066 
303 0.909666 -0.11058 
304 0.928958 0.0313678 
305 0.930089 -0.089073 
306 0.910997 0.00425804 
253 0.955579 0.0873718 
254 0.934576 0.0701153 
255 0.942983 0.0784927 
256 0.917227 -0.0548277 
257 0.922544 0.0393262 
258 0.910219 -0.0547737 
205 0.936893 0.03056 
206 0.892206 0.143493 
207 0.901171 0.00926231 
208 0.902806 0.0984361 
209 0.904192 -0.0658794 
210 0.916362 0.0882573 
157 0.914234 0.0210551 
158 0.920226 -0.0203462 
159 0.881517 0.116746 
160 0.898763 -0.00635802 
161 0.894813 0.124746 
162 0.905557 -0.0804758 
109 0.922984 -0.0683801 
110 0.882662 0.085121 
111 0.891795 -0.06039 
351 0.909706 0.00559267 
687 0.910589 -0.112792 
448 0.923393 -0.124298 
449 0.908669 -0.0186375 
450 0.874878 -0.0301352 
397 0.952471 0.0218941 
398 0.925369 0.136611 
399 0.921367 -0.0569433 
400 0.908148 0.0392901 
401 0.898454 -0.0914798 
402 0.935319 0.0723523 
349 0.927544 0.0178886 
685 0.933936 -0.159238 
350 0.955126 0.0133465 
686 0.938266 0.0653243 
352 0.903978 -0.083527 
688 0.88314 0.0937692 
353 0.92087 0.0628788 
689 0.861284 -0.0709266 
354 0.92478 -0.106097 
690 0.914006 -0.0664581 
637 0.932813 -0.161129 
638 0.885364 -0.122696 
639 0.937279 0.0288735 
640 0.921209 -0.0512135 
641 0.903099 0.12339 
642 0.938651 -0.0938681 
589 0.893012 -0.125025 
590 0.927973 -0.00294902 
591 0.923086 -0.0929354 
592 0.911479 0.0991031 
593 0.914026 -0.0158216 
594 0.937105 0.0374029 
541 0.93892 0.156432 
542 0.941464 -0.053094 
543 0.921596 0.0470558 
544 0.907841 -0.082288 
545 0.931702 0.109136 
546 0.95863 -0.0641444 
493 0.923753 -0.000940664 
494 0.878755 0.103182 
495 0.893542 -0.0539269 
496 0.918503 0.0168524 
497 0.949037 -0.0487032 
498 0.894954 0.110604 
445 0.928597 0.104803 
446 0.941536 0.044035 
447 0.879877 0.114174 
1024 0.898642 0.00851892 
784 0.916225 0.0940079 
785 0.939148 -0.0958066 
786 0.909576 0.155146 
733 0.890913 -0.125578 
734 0.927808 0.011314 
735 0.903423 0.0847577 
736 0.891015 -0.0149308 
737 0.90486 0.072965 
738 0.886744 -0.111968 
1021 0.907029 -0.107473 
1022 0.907614 0.0201049 
1023 0.878634 0.208887 
1025 0.912609 0.191917 
1026 0.919478 0.0184985 
973 0.919841 -0.142699 
974 0.877967 0.157328 
975 0.887963 -0.0182083 
976 0.904992 0.104743 
977 0.915208 -0.0163184 
978 0.91522 0.0501065 
925 0.887993 -0.154004 
926 0.936426 -0.0267811 
927 0.884406 0.0280453 
928 0.894596 -0.0778502 
929 0.909873 0.131556 
930 0.947533 -0.027802 
877 0.939011 -0.167589 
878 0.934022 0.0667582 
879 0.916108 -0.127477 
880 0.897795 0.0903831 
881 0.930226 0.0385533 
882 0.913665 0.155753 
829 0.920244 -0.17482 
830 0.896538 -0.0493969 
831 0.917738 0.072001 
832 0.927258 -0.0515142 
833 0.9004 0.0694725 
834 0.904775 0.0550088 
781 0.89867 -0.132786 
782 0.906308 0.0807957 
783 0.935442 0.0149119 
1361 0.894669 -0.168796 
1120 0.904019 -0.00808259 
1121 0.926856 0.160897 
1122 0.922101 0.00566685 
1069 0.95203 -0.0850766 
1405 0.950973 -0.147644 
1070 0.879637 0.132063 
1406 0.883326 -0.0560863 
1071 0.908908 0.0131382 
1407 0.917207 0.0744477 
1072 0.898631 0.209158 
1408 0.916483 -0.117781 
1073 0.8991 0.115488 
1409 0.90463 0.00960862 
1074 0.921324 0.133327 
1410 0.904763 -0.129149 
1357 0.885621 -0.12035 
1358 0.918893 0.0237569 
1359 0.911887 -0.0798953 
1360 0.925356 -0.0414212 
1362 0.896382 0.0454223 
1309 0.918255 0.0917386 
1310 0.910662 -0.132982 
1311 0.946021 0.037533 
1312 0.941906 -0.112917 
1313 0.940611 0.0190604 
1314 0.906134 -0.0640996 
1261 0.875312 0.0108735 
1262 0.913071 0.060923 
1263 0.918746 -0.0509386 
1264 0.882887 0.0678028 
1265 0.905418 -0.00280539 
1266 0.919582 0.112567 
1213 0.872649 0.190844 
1214 0.925384 -0.0615312 
1215 0.924641 0.07223 
1216 0.947037 -0.0306021 
1217 0.894511 0.10057 
1218 0.921147 -0.0291435 
1165 0.918714 -0.0624893 
1166 0.929058 0.0108936 
1167 0.958612 -0.0687332 
1168 0.931558 0.101042 
1169 0.924596 -0.071256 
1170 0.89687 0.0941491 
1117 0.932036 0.034279 
1118 0.943627 -0.0715928 
1119 0.91341 0.0431858 
1698 0.926057 0.0165704 
1456 0.907147 0.15776 
1457 0.825608 -0.0671501 
1458 0.897049 -0.058736 
1741 0.906311 -0.148367 
1742 0.909112 0.144491 
1743 0.904081 -0.080297 
1744 0.916731 0.0728432 
1745 0.935624 -0.0066986 
1746 0.916265 0.0294044 
1693 0.896166 -0.193024 
1694 0.927282 0.037504 
1695 0.902506 0.0805584 
1696 0.903386 -0.0612497 
1697 0.919245 0.146007 
1645 0.934843 -0.162352 
1646 0.940059 0.0706008 
1647 0.914657 -0.0338654 
1648 0.917552 0.12072 
1649 0.928367 -0.0488608 
1650 0.900607 0.143067 
1597 0.875607 -0.250187 
1598 0.922745 -0.106391 
1599 0.942616 0.10027 
1600 0.940735 0.01486 
1601 0.903054 0.0688331 
1602 0.890545 -0.0740427 
1549 0.893966 -0.237811 
1550 0.922692 0.0642707 
1551 0.954203 -0.0145688 
1552 0.896471 0.181847 
1553 0.876222 -0.0626024 
1554 0.934604 0.0376604 
1501 0.909187 -0.236113 
1502 0.917823 -0.0311065 
1503 0.906698 0.0465666 
1504 0.861462 0.033714 
1505 0.869406 0.160516 
1506 0.882867 -0.170513 
1453 0.921864 -0.184343 
1454 0.919559 0.0780985 
1455 0.908466 -0.0731855 
1792 0.916183 -0.119938 
2128 0.909401 0.121522 
1793 0.923892 0.141656 
2129 0.92649 0.0031737 
1794 0.939546 -0.0848995 
2130 0.936963 0.0704609 
2077 0.935704 -0.0551928 
2078 0.925179 -0.0871713 
2079 0.96069 0.121588 
2080 0.941126 0.0400885 
2081 0.910194 0.0856003 
2082 0.923983 -0.02668 
2029 0.92656 -0.131477 
2030 0.905249 0.0403443 
2031 0.942618 0.00880011 
2032 0.913173 0.107539 
2033 0.928769 -0.0790151 
2034 0.960732 0.0110398 
1981 0.934011 -0.0729121 
1982 0.945926 -0.0172482 
1983 0.910674 0.0703958 
1984 0.905126 -0.00750715 
1985 0.887851 0.0709055 
1986 0.915174 -0.182941 
1933 0.942434 -0.0488913 
1934 0.898224 0.193114 
1935 0.911896 -0.0498348 
1936 0.932955 0.0901183 
1937 0.89571 -0.0742431 
1938 0.884989 -0.01333 
1885 0.924696 -0.110974 
1886 0.874599 0.0771637 
1887 0.871979 0.131473 
1888 0.909371 -0.134899 
1889 0.940121 0.064998 
1890 0.907786 -0.032626 
1837 0.919676 -0.165468 
1838 0.939128 0.175396 
1839 0.891669 -0.12729 
1840 0.870353 0.0246165 
1841 0.888494 0.0140315 
1842 0.947232 0.00978493 
1789 0.935941 -0.230128 
1790 0.896102 -0.00428701 
2126 0.961193 0.0618215 
1791 0.901007 0.0706787 
2127 0.90101 -0.0470789 
2464 0.937934 -0.0512109 
2465 0.889571 0.0789804 
2466 0.915965 -0.0334947 
2413 0.885621 -0.163138 
2414 0.886938 0.0183292 
2415 0.936524 0.00131849 
2416 0.923817 0.0798714 
2417 0.931452 -0.126438 
2418 0.907523 0.116741 
2365 0.927634 0.0260224 
2366 0.90356 -0.131554 
2367 0.90589 0.0588068 
2368 0.930087 0.0177993 
2369 0.900428 0.0428337 
2370 0.889432 -0.150262 
2317 0.885823 -0.0576416 
2318 0.914885 -0.0108235 
2319 0.94486 -0.121444 
2320 0.930457 0.113797 
2321 0.875348 -0.0806286 
2322 0.879997 0.0174094 
2269 0.901931 0.0913553 
2270 0.899977 -0.125304 
2271 0.917996 -0.0369619 
2272 0.887162 -0.143172 
2273 0.915666 0.0545618 
2274 0.923294 -0.0369822 
2221 0.88599 -0.12488 
2222 0.910929 -0.0448992 
2223 0.88681 -0.157755 
2224 0.904417 -0.0205752 
2225 0.925778 -0.0761064 
2226 0.925313 0.115263 
2173 0.906164 -0.00676192 
2174 0.920438 -0.119242 
2175 0.931203 -0.00077156 
2176 0.902481 -0.104853 
2177 0.923561 0.096662 
2178 0.927697 -0.0376272 
2125 0.937706 -0.0932036 
2461 0.895659 -0.0190843 
2462 0.884572 -0.137401 
2463 0.922186 0.0967507 
21 0.946798 -0.167188 
168 0.886371 -0.0603702 
115 0.907437 -0.0636125 
116 0.901247 0.102283 
117 0.916585 0.0590843 
118 0.928114 0.0334589 
119 0.909589 -0.147176 
120 0.928436 0.0632913 
67 0.88898 0.0411408 
68 0.908982 -0.080185 
69 0.901077 0.0895016 
70 0.939899 -0.0307252 
71 0.915292 0.0474314 
72 0.897468 -0.138733 
19 0.914533 -0.0733342 
20 0.925332 0.0449065 
22 0.889956 0.115558 
23 0.881858 0.00144584 
24 0.909548 0.031497 
307 0.915773 0.00570851 
308 0.930412 0.079004 
309 0.917832 -0.162852 
310 0.923391 0.025629 
311 0.892424 -0.0773286 
312 0.931004 0.0713667 
259 0.932284 0.164753 
260 0.927528 0.0342186 
261 0.870568 -0.127894 
262 0.875277 -0.146229 
263 0.927207 0.110436 
264 0.925295 -0.070948 
211 0.952 0.0678661 
212 0.963447 -0.00468858 
213 0.882428 -0.164943 
214 0.900816 0.117608 
215 0.918036 -0.0520998 
216 0.891817 0.077259 
163 0.919859 0.0937329 
164 0.919718 -0.0327398 
165 0.966797 0.126988 
166 0.927329 0.0277883 
167 0.875499 0.00345186 
358 0.903618 -0.0670276 
694 0.932359 0.0125764 
504 0.940007 0.0330851 
451 0.887852 0.112184 
452 0.929267 -0.109991 
453 0.913161 0.0987713 
454 0.933947 0.0156665 
455 0.906119 0.0884284 
456 0.935159 -0.0756912 
403 0.917389 -0.0170753 
404 0.899515 0.0741203 
405 0.934597 -0.0361968 
406 0.923769 0.0987442 
407 0.932992 -0.0931616 
408 0.904078 0.0833421 
355 0.936765 0.0287182 
691 0.931389 -0.0565826 
356 0.922851 0.0341407 
692 0.901796 0.241735 
357 0.894937 0.0482218 
693 0.910189 0.00558525 
359 0.90762 0.0259341 
695 0.930829 -0.123503 
360 0.882299 -0.064448 
696 0.917417 0.00242374 
643 0.942422 0.0625989 
644 0.889181 0.0459067 
645 0.889944 0.0895862 
646 0.913108 -0.0936672 
647 0.922526 0.0119422 
648 0.899119 -0.0840696 
595 0.916312 -0.0302097 
596 0.935767 0.110084 
597 0.921131 -0.0672002 
598 0.909203 0.079598 
599 0.892323 -0.0615117 
600 0.91187 0.0551631 
547 0.944103 0.0431999 
548 0.888274 -0.0798714 
549 0.926903 0.0634951 
550 0.924936 -0.0283156 
551 0.917336 0.125875 
552 0.933584 -0.0579291 
499 0.870446 -0.0742812 
500 0.88679 0.0124787 
501 0.913569 -0.00138829 
502 0.920426 0.120079 
503 0.931308 -0.0293008 
1031 0.934175 -0.0302311 
840 0.919705 0.124071 
787 0.872824 -0.0669139 
788 0.908472 -0.0227695 
789 0.905076 -0.0642116 
790 0.903276 0.188713 
791 0.907674 0.0961713 
792 0.926478 0.118061 
739 0.896078 0.0228609 
740 0.917619 -0.0145473 
741 0.906595 0.184374 
742 0.915097 -0.0211564 
743 0.91184 0.0650071 
744 0.92881 -0.0684558 
1027 0.885304 -0.0106769 
1028 0.891201 -0.163364 
1029 0.92818 0.145967 
1030 0.963137 -0.130086 
1032 0.921361 0.00756714 
979 0.911758 -0.117658 
980 0.896209 0.0786264 
981 0.93468 0.0344204 
982 0.914766 0.0349535 
983 0.936211 0.0303666 
984 0.916952 0.0311821 
931 0.913707 0.0642568 
932 0.9074 -0.0632085 
933 0.92645 0.184282 
934 0.958399 0.037703 
935 0.932452 0.0935221 
936 0.938445 0.0323771 
883 0.899621 -0.056805 
884 0.919044 0.0975817 
885 0.955507 -0.0141491 
886 0.930101 0.0919299 
887 0.911137 0.0998011 
888 0.934331 0.166216 
835 0.888029 0.139202 
836 0.895726 -0.121811 
837 0.911668 -0.0169161 
838 0.908525 -0.0323139 
839 0.915345 0.273186 
1368 0.955886 0.053142 
1176 0.926927 0.16789 
1123 0.890959 0.110339 
1124 0.930652 -0.0486585 
1125 0.923341 0.0389049 
1126 0.887173 -0.221935 
1127 0.925341 -0.0195143 
1128 0.912637 0.138143 
1075 0.933889 -0.152743 
1411 0.933989 0.0717865 
1076 0.896758 0.0601746 
1412 0.921273 -0.0425196 
1077 0.848763 -0.0676391 
1413 0.937718 0.0799468 
1078 0.908093 -0.216335 
1414 0.927923 -0.0445165 
1079 0.922499 -0.0122838 
1415 0.913819 0.0542061 
1080 0.940512 0.0793267 
1416 0.932268 0.0188651 
1363 0.909721 -0.0386996 
1364 0.910648 0.0990122 
1365 0.925536 -0.0426484 
1366 0.944711 0.00780269 
1367 0.927966 0.00966029 
1315 0.894746 0.0687732 
1316 0.877427 -0.071882 
1317 0.894016 0.092102 
1318 0.912368 -0.0627026 
1319 0.939859 0.115769 
1320 0.927752 0.0889559 
1267 0.884051 -0.0857973 
1268 0.874206 0.0710838 
1269 0.898382 0.0341559 
1270 0.951336 0.00373927 
1271 0.890353 0.21553 
1272 0.868203 0.0985856 
1219 0.919857 0.102285 
1220 0.910079 -0.0333373 
1221 0.892529 0.124877 
1222 0.900868 -0.111076 
1223 0.934707 0.0230287 
1224 0.908417 0.20173 
1171 0.906479 0.00782201 
1172 0.914473 0.100612 
1173 0.89713 -0.0946464 
1174 0.925212 -0.156801 
1175 0.919796 0.0881715 
1512 0.905449 -0.0365117 
1459 0.929235 -0.0921257 
1460 0.939845 0.0478269 
1461 0.934359 -0.0606668 
1462 0.911553 0.164794 
1463 0.908258 -0.00908506 
1464 0.905872 0.0994603 
1747 0.956069 -0.0703828 
1748 0.931094 0.0562526 
1749 0.902539 -0.154644 
1750 0.904935 0.0496566 
1751 0.895627 -0.0457097 
1752 0.91701 0.0676279 
1699 0.903274 0.0663914 
1700 0.898071 -0.080378 
1701 0.915537 0.0429112 
1702 0.918891 -0.165157 
1703 0.921696 0.0665361 
1704 0.910271 -0.0744724 
1651 0.867786 -0.0177248 
1652 0.918812 0.058735 
1653 0.912762 -0.115472 
1654 0.864309 0.0792898 
1655 0.909187 -0.0776742 
1656 0.893612 0.0785993 
1603 0.908022 0.137563 
1604 0.927917 -0.0510109 
1605 0.921237 0.0377445 
1606 0.889833 -0.0771753 
1607 0.876374 0.10121 
1608 0.903036 -0.0498871 
1555 0.930358 -0.095037 
1556 0.914682 0.0519412 
1557 0.901344 -0.0650609 
1558 0.86592 0.138567 
1559 0.899719 -0.0206471 
1560 0.884153 0.130891 
1507 0.939967 -0.0106215 
1508 0.933748 -0.0841962 
1509 0.904832 0.0636255 
1510 0.887252 0.0350964 
1511 0.86011 0.172874 
1848 0.906715 -0.0149946 
1795 0.954211 -0.021034 
2131 0.930135 -0.0445464 
1796 0.952338 -0.0768794 
2132 0.898713 0.0859555 
1797 0.927289 0.00132753 
1798 0.890275 -0.0325807 
2134 0.946544 -0.0293714 
2135 0.941258 -0.0739095 
1799 0.903114 0.0981933 
1800 0.896917 -0.119285 
2136 0.897941 0.0714903 
2083 0.927125 0.0540404 
2084 0.902436 0.0153921 
2085 0.893411 0.107617 
2086 0.930514 -0.184401 
2087 0.943089 -0.0450984 
2088 0.91154 -0.0148746 
2035 0.927321 -0.0293383 
2036 0.888671 0.183367 
2037 0.895985 -0.00873442 
2038 0.937715 -0.0809009 
2039 0.936827 -0.153469 
2040 0.919849 0.0925619 
1987 0.94971 0.0480239 
1988 0.921355 0.108572 
1989 0.884568 0.139541 
1990 0.932151 -0.170322 
1991 0.923152 -0.139609 
1992 0.918663 -0.11484 
1939 0.945542 0.000774014 
1940 0.936031 0.140842 
1941 0.928331 -0.101789 
1942 0.921767 -0.141662 
1943 0.914874 -0.211515 
1944 0.921967 -0.00643669 
1891 0.900405 0.0353482 
1892 0.91694 -0.038498 
1893 0.921867 0.0445612 
1894 0.949164 -0.119084 
1895 0.928516 -0.0415802 
1896 0.903573 -0.178588 
1843 0.932801 -0.107408 
1844 0.931104 0.0314276 
1845 0.941491 -0.0519158 
1846 0.912384 0.105763 
1847 0.893631 -0.106253 
2323 0.913526 -0.0965795 
2184 0.955374 -0.109068 
2467 0.909983 0.100429 
2468 0.895584 -0.0861995 
2133 0.898442 -0.171823 
2469 0.877889 -0.0716754 