ITEM: TIMESTEP
8000
ITEM: NUMBER OF ATOMS
2496
ITEM: BOX BOUNDS pp pp pp
-6.7136100000000001e+00 1.6291399999999999e+02
8.9272299999999998e+00 1.5217300000000000e+02
-2.0000000000000001e-01 2.0000000000000001e-01
ITEM: ATOMS id c_1[1] c_1[2] 
1 0.934702 0.0592117 
2 0.931294 -0.103924 
3 0.953143 -0.0260663 
339 0.912998 -0.0939922 
4 0.921819 -0.196059 
5 0.881524 0.0290435 
6 0.887304 -0.0588704 
289 0.906757 0.0273356 
290 0.929066 -0.110128 
291 0.910658 0.0310387 
292 0.944423 -0.0472256 
293 0.892139 0.145521 
294 0.913604 -0.0271784 
241 0.932913 -0.0958541 
242 0.872319 -0.0470394 
243 0.880279 -0.0754915 
244 0.914868 0.110712 
245 0.918171 -0.000769071 
246 0.883401 0.115511 
193 0.939954 0.00347999 
194 0.904929 -0.141718 
195 0.913542 0.0735981 
196 0.921548 -0.0969988 
197 0.913441 0.0951844 
198 0.91222 -0.106583 
145 0.887535 -0.0971073 
146 0.948246 0.0636411 
147 0.922743 -0.0275918 
148 0.891994 0.00680113 
149 0.881588 -0.145793 
150 0.902369 0.0295416 
97 0.916167 -0.0102195 
98 0.930265 -0.00729504 
99 0.911932 0.105612 
100 0.877252 -0.137032 
101 0.912809 -0.00783366 
102 0.924713 -0.139013 
49 0.971569 -0.049345 
50 0.927656 -0.000597887 
51 0.922763 -0.0172147 
52 0.885803 -0.00137922 
53 0.904611 -0.194571 
54 0.918963 -0.018608 
673 0.938879 0.0734129 
337 0.890468 -0.0969818 
674 0.877024 -0.173058 
338 0.891654 0.0585355 
675 0.877613 0.0187271 
340 0.928091 0.0843038 
676 0.895334 -0.10089 
341 0.924056 0.0523648 
677 0.926897 -0.00983305 
342 0.913111 0.169462 
678 0.923349 -0.0482823 
625 0.872746 -0.0560959 
626 0.9117 0.124022 
627 0.901118 -0.0759064 
628 0.895926 0.0420253 
629 0.944506 -0.0132215 
630 0.929541 0.124335 
577 0.903823 0.114117 
578 0.88407 0.01945 
579 0.946264 -0.0084095 
580 0.917619 0.0657468 
581 0.909332 0.207414 
582 0.928673 -0.0256898 
529 0.957017 -0.0127305 
530 0.91635 0.081821 
531 0.944117 -0.0405515 
532 0.935851 0.040238 
533 0.918751 0.150071 
534 0.916158 0.00314022 
481 0.928405 0.115472 
482 0.943173 -0.03204 
483 0.948264 -0.0867326 
484 0.935959 0.00578276 
485 0.944061 0.126923 
486 0.91469 -0.0760618 
433 0.918475 0.0307701 
434 0.941059 0.110814 
435 0.950327 -0.0891745 
436 0.95729 0.00736914 
437 0.921387 0.122627 
438 0.936055 0.114428 
385 0.905758 0.0799286 
386 0.93343 -0.0139695 
387 0.918388 0.0436121 
388 0.939643 0.0910405 
389 0.909419 0.20957 
390 0.897284 0.0182324 
1010 0.937543 -0.0343701 
1009 0.940398 0.0323702 
1011 0.933572 0.0814779 
1012 0.887425 0.0878372 
1013 0.893905 0.0366106 
1014 0.890945 0.159805 
961 0.91702 0.0756675 
962 0.93275 0.0334881 
963 0.964035 0.0638217 
964 0.932508 -0.0450148 
965 0.914127 0.199828 
966 0.914522 -0.000976753 
913 0.909405 0.215498 
914 0.927855 -0.0325863 
915 0.944151 -0.0368524 
916 0.937282 0.00219407 
917 0.918474 0.0517326 
918 0.917397 0.180291 
865 0.902513 0.0543665 
866 0.935214 -0.0890692 
867 0.929215 0.0364437 
868 0.929086 -0.11748 
869 0.89315 0.13428 
870 0.912092 0.0634368 
817 0.910903 0.112011 
818 0.960103 -0.0194807 
819 0.911838 0.0245954 
820 0.917959 0.0233678 
821 0.904725 -0.111308 
822 0.911598 0.152553 
769 0.924935 0.109578 
770 0.909568 -0.129035 
771 0.921803 0.0314545 
772 0.905627 -0.0955341 
773 0.881826 0.082947 
774 0.914138 -0.0312869 
721 0.922189 0.106739 
722 0.886216 -0.0745694 
723 0.877125 -0.229636 
724 0.920158 0.0113586 
725 0.893929 -0.107104 
726 0.892675 0.0512108 
1347 0.883115 0.0992716 
1345 0.913787 0.200951 
1346 0.905619 0.0431289 
1348 0.943081 -0.110225 
1349 0.9187 0.0606595 
1350 0.918146 -0.0765573 
1297 0.939466 0.062852 
1298 0.902137 0.138701 
1299 0.871985 0.079292 
1300 0.844294 0.0718919 
1301 0.845408 -0.142968 
1302 0.936394 0.103778 
1249 0.917614 0.209964 
1250 0.924645 -0.00602358 
1251 0.95208 0.125356 
1252 0.853849 -0.170924 
1253 0.895164 -0.0269121 
1254 0.934031 -0.0547478 
1201 0.91841 0.214021 
1202 0.90438 0.169274 
1203 0.939944 -0.107698 
1204 0.932938 -0.0617303 
1205 0.903751 -0.164566 
1206 0.931146 0.0654886 
1153 0.951769 0.183912 
1154 0.950831 -0.0773183 
1155 0.88587 0.034931 
1156 0.901577 -0.110473 
1157 0.919296 0.0432226 
1158 0.929441 -0.068983 
1105 0.900388 0.0330172 
1106 0.916295 -0.0783292 
1107 0.883869 -0.0481514 
1108 0.890422 0.156995 
1109 0.923672 -0.0718298 
1110 0.921047 0.024932 
1393 0.893137 0.0740818 
1057 0.959832 -0.0688195 
1058 0.919614 -0.120497 
1394 0.888325 0.15373 
1059 0.894214 0.169496 
1395 0.92961 -0.0965185 
1060 0.909757 0.0186669 
1396 0.886497 0.110383 
1061 0.90554 0.105804 
1397 0.933286 -0.00331776 
1062 0.902713 -0.07869 
1398 0.910891 -0.00581654 
1684 0.890575 0.134071 
1681 0.906709 -0.0610433 
1682 0.926615 0.0924775 
1683 0.918859 -0.00337537 
1685 0.921258 -0.120275 
1686 0.954599 0.0335427 
1633 0.890551 0.0518415 
1634 0.920733 -0.0151517 
1635 0.899077 0.144761 
1636 0.905934 -0.122523 
1637 0.855035 -0.0345703 
1638 0.928764 0.0481201 
1585 0.877199 -0.0974633 
1586 0.886685 0.0607892 
1587 0.850082 -0.0370235 
1588 0.85446 0.0384967 
1589 0.902848 -0.0902526 
1590 0.878488 0.132234 
1537 0.90309 0.048893 
1538 0.868353 -0.0812235 
1539 0.933517 0.00412884 
1540 0.921631 -0.0699607 
1541 0.895833 0.162058 
1542 0.885652 -0.0622123 
1489 0.944571 -0.0830533 
1490 0.927196 0.0662863 
1491 0.923139 -0.100138 
1492 0.947386 0.0378612 
1493 0.89882 -0.0231753 
1494 0.881191 0.0111998 
1441 0.895734 0.14246 
1442 0.908978 -0.0699196 
1443 0.890285 0.0397923 
1444 0.887341 0.0401758 
1445 0.923151 0.0577239 
1446 0.880642 -0.157548 
1729 0.921098 0.0558353 
1730 0.916121 -0.069583 
1731 0.889227 0.116361 
1732 0.910272 0.0184656 
1733 0.956432 -0.0231493 
1734 0.930126 -0.0740947 
2021 0.938743 0.0527348 
2017 0.925385 0.100162 
2018 0.932762 -0.0384297 
2019 0.945059 0.0630428 
2020 0.94394 -0.0338575 
2022 0.91899 -0.0921129 
1969 0.913124 -0.0447944 
1970 0.912942 0.0770452 
1971 0.909971 -0.0535224 
1972 0.950203 0.114106 
1973 0.945443 -0.0209234 
1974 0.943255 0.0814767 
1921 0.910001 0.0699163 
1922 0.91347 -0.113003 
1923 0.911614 0.046771 
1924 0.931593 -0.0180247 
1925 0.888136 0.109183 
1926 0.908312 0.0323622 
1873 0.925426 -0.0787468 
1874 0.886211 -0.0456437 
1875 0.885289 -0.178348 
1876 0.937223 0.055884 
1877 0.9232 0.00376657 
1878 0.899961 0.135959 
1825 0.919766 -0.0355391 
1826 0.888961 -0.171657 
1827 0.899269 0.00953096 
1828 0.920992 -0.0194624 
1829 0.934849 0.120715 
1830 0.919149 -0.0579828 
2113 0.915823 0.0451593 
1777 0.917077 -0.156514 
2114 0.906562 -0.127904 
1778 0.924358 0.00441462 
1779 0.903382 -0.0823657 
2115 0.920502 0.061291 
2116 0.925483 -0.0326213 
1780 0.902261 0.0935033 
1781 0.915853 -0.0494339 
2117 0.929616 0.0407259 
2118 0.889744 -0.123317 
1782 0.911844 -0.0121587 
2065 0.929241 0.0554668 
2066 0.916353 0.0695552 
2067 0.924576 -0.079944 
2068 0.944236 0.0511674 
2069 0.948389 -0.0417213 
2070 0.929798 0.0263394 
2358 0.952477 -0.00166891 
2353 0.879607 -0.0545792 
2354 0.917258 0.0655986 
2355 0.920197 -0.111565 
2356 0.951942 -0.0224158 
2357 0.906736 -0.15195 
2305 0.93569 -0.00398957 
2306 0.921013 -0.145111 
2307 0.928484 0.00672626 
2308 0.903116 -0.130566 
2309 0.879332 -0.0245614 
2310 0.919883 -0.0693121 
2257 0.881522 -0.189886 
2258 0.928683 -0.0430844 
2259 0.894772 -0.162671 
2260 0.910484 -0.000294876 
2261 0.912196 -0.0875276 
2262 0.906934 0.0869464 
2209 0.877648 -0.0490841 
2210 0.893591 -0.114309 
2211 0.882319 0.0254725 
2212 0.916526 -0.060636 
2213 0.915456 0.0889549 
2214 0.900148 -0.110941 
2161 0.938637 -0.179253 
2162 0.898541 -0.0256549 
2163 0.889313 -0.0554885 
2164 0.901854 0.109935 
2165 0.928484 -0.0584047 
2166 0.90519 0.00701618 
2449 0.93418 -0.00327403 
2450 0.933404 -0.0276514 
2451 0.916075 -0.152635 
2452 0.912491 -0.140173 
2453 0.904566 -0.121449 
2454 0.886232 0.0496688 
2401 0.918224 0.0470291 
2402 0.913403 -0.0908563 
2403 0.937326 -0.0911075 
2404 0.910467 -0.183635 
2405 0.94578 -0.0281322 
2406 0.941719 -0.0932816 
7 0.946036 -0.0307505 
56 0.871621 0.00507701 
57 0.870577 -0.0990463 
58 0.884919 0.0345739 
59 0.870103 -0.109602 
60 0.89176 0.257911 
8 0.895728 -0.221821 
9 0.931969 0.00635418 
10 0.883759 -0.1559 
11 0.893065 0.0280446 
12 0.896023 0.253431 
295 0.936565 0.0568719 
296 0.925605 -0.0818227 
297 0.922838 -0.0188088 
298 0.901532 -0.147693 
299 0.865182 0.0348061 
300 0.886498 -0.0236618 
247 0.920643 -0.107612 
248 0.945346 0.0918395 
249 0.957438 -0.0733893 
250 0.937904 -0.00766824 
251 0.902931 -0.126778 
252 0.892097 0.11132 
199 0.90735 0.0306524 
200 0.94284 -0.0480625 
201 0.926726 0.0431693 
202 0.906985 -0.12084 
203 0.915676 0.000457724 
204 0.910368 0.0825779 
151 0.917098 -0.142012 
152 0.920281 0.0650796 
153 0.924309 -0.104907 
154 0.920284 0.00664066 
155 0.919192 -0.119085 
156 0.930367 0.183373 
103 0.890861 0.0590967 
104 0.914405 -0.087224 
105 0.906627 0.0184011 
106 0.915926 -0.149584 
107 0.885967 0.076396 
108 0.895474 0.212725 
55 0.900685 -0.112436 
344 0.918996 0.0224903 
680 0.91209 0.0574837 
392 0.911062 -0.110064 
393 0.947074 0.010292 
394 0.909801 -0.130912 
395 0.906116 0.032804 
396 0.907185 -0.0979297 
679 0.911347 0.158254 
343 0.939944 -0.0302887 
345 0.924974 -0.179655 
681 0.913589 0.16468 
346 0.951552 -0.0338672 
682 0.928442 -0.00385893 
347 0.910246 -0.133917 
683 0.939614 0.0887031 
348 0.926652 0.047345 
684 0.88711 -0.068617 
631 0.927468 0.0354944 
632 0.911456 0.165135 
633 0.907087 0.0559147 
634 0.915088 0.182813 
635 0.917337 -0.0463001 
636 0.940011 0.107651 
583 0.897173 0.125144 
584 0.918811 -0.0153659 
585 0.900834 0.17501 
586 0.879907 -0.0433439 
587 0.841066 0.0987873 
588 0.849602 -0.00907792 
535 0.897216 -0.0531355 
536 0.87338 0.0528699 
537 0.891654 -0.0406237 
538 0.893423 0.120309 
539 0.918085 -0.0233485 
540 0.888533 0.186783 
487 0.930956 0.0579207 
488 0.924666 -0.120616 
489 0.911561 0.109587 
490 0.937768 -0.0266136 
491 0.9297 0.15783 
492 0.912724 -0.0720791 
439 0.910354 -0.0330716 
440 0.908731 0.0244976 
441 0.895985 -0.0452798 
442 0.894582 0.05552 
443 0.903329 -0.0901267 
444 0.920442 0.0529854 
391 0.925576 0.0536672 
1017 0.882603 -0.0559325 
728 0.906504 0.158916 
729 0.918333 0.0187867 
730 0.900805 0.119274 
731 0.932393 -0.0196872 
732 0.935288 -0.0272308 
1015 0.905188 -0.0369188 
1016 0.89275 0.0932517 
1018 0.896317 0.0707305 
1019 0.883852 -0.29722 
1020 0.888454 -0.154622 
967 0.923185 0.121962 
968 0.882624 -0.0546134 
969 0.919352 0.0513348 
970 0.873837 -0.0958762 
971 0.874362 -0.254852 
972 0.91511 -0.0220445 
919 0.94983 -0.0112887 
920 0.94277 0.145897 
921 0.953987 -0.0397439 
922 0.945912 0.132184 
923 0.946815 -0.124328 
924 0.921537 -0.062137 
871 0.903112 0.158891 
872 0.937328 0.0166585 
873 0.868735 0.182334 
874 0.907428 0.0988969 
875 0.91729 0.0155569 
876 0.924696 -0.0054426 
823 0.913333 -0.0103518 
824 0.902443 0.0989164 
825 0.897033 0.0377197 
826 0.875371 0.227565 
827 0.940537 0.000423666 
828 0.905691 -0.0286088 
775 0.89238 0.078015 
776 0.924627 0.00565557 
777 0.915745 0.181847 
778 0.944448 0.0597593 
779 0.926254 -0.00649985 
780 0.927553 -0.188277 
727 0.922885 -0.0265417 
1354 0.900978 -0.0513578 
1400 0.941161 -0.022354 
1064 0.918051 -0.0366302 
1065 0.912946 0.0860195 
1401 0.918887 -0.0370976 
1066 0.90601 -0.101222 
1402 0.898468 0.0229899 
1067 0.898628 -0.279987 
1403 0.900017 -0.225048 
1068 0.884369 0.0327418 
1404 0.903396 -0.0129971 
1351 0.930981 -0.00880872 
1352 0.937417 -0.100537 
1353 0.903782 0.102749 
1355 0.905358 -0.148998 
1356 0.914213 0.0841226 
1303 0.951083 -0.0360509 
1304 0.945545 0.0663016 
1305 0.907691 0.0119829 
1306 0.880564 0.124803 
1307 0.890873 -0.198095 
1308 0.895283 -0.0749391 
1255 0.906731 0.0843837 
1256 0.929061 -0.0233289 
1257 0.926534 0.140533 
1258 0.900124 -0.0500868 
1259 0.902296 -0.227808 
1260 0.872617 0.113658 
1207 0.927817 -0.0399524 
1208 0.913483 0.104172 
1209 0.908538 -0.0398154 
1210 0.933375 0.168865 
1211 0.928949 -0.152587 
1212 0.916684 -0.0387126 
1159 0.910201 0.111694 
1160 0.896818 -0.00328145 
1161 0.893175 0.151339 
1162 0.893482 0.0208488 
1163 0.911889 -0.14764 
1164 0.917984 0.0971794 
1111 0.903922 -0.0825714 
1112 0.919674 0.123577 
1113 0.9219 -0.0332137 
1114 0.901502 0.08179 
1115 0.908647 -0.18385 
1116 0.899429 -0.0603514 
1063 0.891178 0.0813633 
1399 0.911554 -0.178482 
1691 0.901446 -0.268149 
1736 0.936778 0.0230052 
1737 0.927054 0.152894 
1738 0.914062 -0.141459 
1739 0.890825 -0.300539 
1740 0.887156 0.0110249 
1687 0.928177 0.107735 
1688 0.901323 0.142067 
1689 0.899215 0.0186867 
1690 0.896311 0.0565058 
1692 0.920814 -0.0958648 
1639 0.91815 0.180533 
1640 0.913128 -0.0597049 
1641 0.927775 0.109664 
1642 0.892652 -0.0359384 
1643 0.905798 -0.160557 
1644 0.933589 0.0877572 
1591 0.88738 -0.0347906 
1592 0.875047 -0.00825808 
1593 0.880513 -0.161225 
1594 0.938143 0.100919 
1595 0.948676 -0.132114 
1596 0.909363 -0.0988746 
1543 0.901393 0.044185 
1544 0.875009 -0.16431 
1545 0.906565 -0.0410785 
1546 0.95594 -0.0444829 
1547 0.915819 -0.150002 
1548 0.914955 0.00636391 
1495 0.864787 -0.112647 
1496 0.908012 0.065918 
1497 0.927942 -0.147844 
1498 0.914645 -0.0128921 
1499 0.900043 -0.166768 
1500 0.935064 -0.010504 
1447 0.931076 -0.00750449 
1448 0.926267 -0.0744114 
1449 0.917443 0.0462692 
1450 0.892888 -0.157065 
1451 0.919767 -0.191583 
1452 0.916547 0.122306 
1735 0.910228 0.12358 
2028 0.904417 0.0984015 
2072 0.934755 0.0612885 
2073 0.922828 -0.0694306 
2074 0.913345 0.0402373 
2075 0.901908 -0.106309 
2076 0.937056 0.058007 
2023 0.932428 0.017605 
2024 0.924208 -0.0411111 
2025 0.911287 0.0334554 
2026 0.886196 -0.0716563 
2027 0.900246 -0.0100332 
1975 0.935819 -0.0998049 
1976 0.935928 0.0535675 
1977 0.959466 -0.023979 
1978 0.93105 0.0868783 
1979 0.936515 -0.0624333 
1980 0.921216 0.15415 
1927 0.920545 0.0365252 
1928 0.948325 -0.0555543 
1929 0.906431 0.0980747 
1930 0.905789 0.0028347 
1931 0.954086 -0.0225411 
1932 0.949486 0.182757 
1879 0.916848 -0.0392247 
1880 0.919486 0.00736529 
1881 0.871863 -0.0298136 
1882 0.904019 0.172381 
1883 0.906446 -0.0830287 
1884 0.915315 -0.022742 
1831 0.910751 0.058195 
1832 0.882988 -0.024362 
1833 0.894484 0.139553 
1834 0.906639 0.0226975 
1835 0.927886 -0.193533 
1836 0.923995 0.0077308 
2119 0.909548 0.0118019 
1783 0.932745 -0.0426415 
2120 0.902855 -0.0749794 
1784 0.914996 0.148905 
1785 0.91835 0.050822 
2121 0.916761 0.0459634 
2122 0.916707 -0.0390472 
1786 0.880662 0.0992007 
1787 0.89331 -0.23471 
2123 0.932563 0.0294515 
1788 0.900562 -0.152949 
2124 0.92601 0.142357 
2071 0.929582 -0.113133 
2408 0.89147 -0.11677 
2409 0.890507 -0.0156152 
2410 0.927641 -0.0473604 
2411 0.915143 0.0829357 
2412 0.912187 0.208333 
2359 0.932989 -0.0450915 
2360 0.921077 0.0106633 
2361 0.900353 -0.102253 
2362 0.907558 0.0876803 
2363 0.905404 -0.072903 
2364 0.905643 0.107428 
2311 0.933702 0.0073675 
2312 0.902538 -0.0695783 
2313 0.908672 0.0958353 
2314 0.911174 -0.0205288 
2315 0.916744 0.033112 
2316 0.930206 0.0936279 
2263 0.91951 -0.143043 
2264 0.947211 0.0513678 
2265 0.928075 -0.0752709 
2266 0.913096 0.0213849 
2267 0.894629 -0.0224375 
2268 0.916282 0.172011 
2215 0.897061 -0.00459336 
2216 0.912286 -0.0983464 
2217 0.902754 0.0085547 
2218 0.900522 -0.0588863 
2219 0.93691 0.061472 
2220 0.920308 0.168144 
2167 0.890311 -0.125785 
2168 0.901363 0.0168786 
2169 0.897211 -0.107534 
2170 0.913583 0.0830066 
2171 0.919118 -0.0528869 
2172 0.927135 0.144659 
2455 0.948891 -0.0618025 
2456 0.949878 -0.000680602 
2457 0.915224 -0.187033 
2458 0.940485 0.0042845 
2459 0.917791 -0.0974869 
2460 0.89117 0.212283 
2407 0.939176 0.101922 
14 0.895647 0.0628149 
112 0.906698 0.00381643 
113 0.879291 -0.0956407 
114 0.901746 0.0537246 
61 0.913861 0.0955462 
62 0.930054 -0.113323 
63 0.916064 0.0721896 
64 0.930719 -0.0711781 
65 0.917585 0.0331595 
66 0.885408 -0.120791 
13 0.928263 -0.0320461 
15 0.927744 -0.0238877 
16 0.938414 0.0707588 
17 0.893778 -0.167181 
18 0.911761 -0.0799539 
301 0.919948 -0.00868469 
302 0.939594 0.0543378 
303 0.964203 -0.0356006 
304 0.917404 -0.0105562 
305 0.923346 -0.0584013 
306 0.871935 0.142589 
253 0.956182 -0.0239995 
254 0.92633 0.0124754 
255 0.928178 -0.0453327 
256 0.919797 -0.115712 
257 0.915771 0.0160742 
258 0.9146 -0.0318244 
205 0.959646 -0.0190219 
206 0.915635 0.0833403 
207 0.906655 -0.137483 
208 0.889124 -0.0368406 
209 0.923968 -0.169471 
210 0.910076 -0.00882798 
157 0.896724 0.00480758 
158 0.849617 -0.0286872 
159 0.897823 0.0895274 
160 0.891504 -0.120168 
161 0.893308 -0.0289379 
162 0.890184 -0.157378 
109 0.875364 -0.115824 
110 0.896246 0.070644 
111 0.868245 -0.0736412 
351 0.955466 0.0111192 
687 0.934653 -0.0109544 
448 0.943025 0.144312 
449 0.88042 0.0137745 
450 0.904274 -0.0517305 
397 0.878502 0.128707 
398 0.884994 0.0529086 
399 0.932165 0.0401764 
400 0.958892 0.0592789 
401 0.927118 -0.107929 
402 0.939589 0.0962869 
349 0.910184 -0.0837936 
685 0.940646 0.0182491 
350 0.906823 0.160583 
686 0.920498 -0.0826238 
352 0.936803 -0.032826 
688 0.898034 0.262505 
353 0.944486 -0.0621622 
689 0.892894 0.00627342 
354 0.916665 -0.0275557 
690 0.92564 -0.00262537 
637 0.900767 -0.145597 
638 0.944557 0.0115352 
639 0.938758 -0.101236 
640 0.939972 0.10451 
641 0.900554 0.0720805 
642 0.953357 -0.088939 
589 0.878114 -0.0315958 
590 0.919529 -0.142052 
591 0.884293 -0.0418204 
592 0.945733 0.113196 
593 0.94988 -0.0622445 
594 0.945176 0.056353 
541 0.936622 -0.0975736 
542 0.89032 -0.0476024 
543 0.901678 -0.174357 
544 0.902875 0.0286969 
545 0.939874 -0.00602656 
546 0.92965 -0.036656 
493 0.910657 -0.0134048 
494 0.903746 -0.144764 
495 0.932407 -0.0470474 
496 0.877653 0.0590716 
497 0.920699 -0.0693838 
498 0.905647 0.0768332 
445 0.907571 -0.0840048 
446 0.911821 0.102179 
447 0.914423 -0.0827861 
1024 0.933581 -0.110229 
784 0.907853 0.180092 
785 0.922991 -0.0138474 
786 0.930349 0.111215 
733 0.883146 -0.0773769 
734 0.886171 0.05688 
735 0.907903 -0.100695 
736 0.91243 0.16961 
737 0.876344 0.17168 
738 0.922156 -0.0916613 
1021 0.895216 0.0270242 
1022 0.897836 -0.0543593 
1023 0.905633 0.0631154 
1025 0.937791 0.0890917 
1026 0.903389 -0.0102376 
973 0.896544 -0.0374554 
974 0.928722 0.0566494 
975 0.929753 -0.066289 
976 0.880263 0.128483 
977 0.888656 -0.00246291 
978 0.909542 0.12224 
925 0.920968 0.0565299 
926 0.954316 0.0575294 
927 0.92846 0.0144099 
928 0.912792 0.0394625 
929 0.888918 0.148202 
930 0.901762 -0.00177736 
877 0.942011 0.0457979 
878 0.956611 0.0395904 
879 0.949972 -0.0368025 
880 0.926872 0.171711 
881 0.911342 0.0200077 
882 0.887602 0.22751 
829 0.93196 -0.0451227 
830 0.946538 0.0635141 
831 0.922547 -0.0763656 
832 0.93781 0.0518168 
833 0.909905 0.154471 
834 0.89786 0.0751518 
781 0.891046 0.0590786 
782 0.918993 0.00033476 
783 0.938988 -0.0467882 
1361 0.890244 -0.148621 
1120 0.919763 -0.121731 
1121 0.938208 0.00766049 
1122 0.884133 -0.0872595 
1069 0.904954 -0.0511252 
1405 0.910856 0.101252 
1070 0.921512 0.0596632 
1406 0.913842 -0.0463685 
1071 0.921696 -0.119749 
1407 0.896508 0.0679326 
1072 0.921824 0.0217573 
1408 0.893545 -0.12367 
1073 0.892722 -0.0750988 
1409 0.899072 -0.06403 
1074 0.881773 0.107466 
1410 0.867456 -0.0824531 
1357 0.918229 -0.0525731 
1358 0.890238 0.111117 
1359 0.878899 -0.0447138 
1360 0.921792 -0.0275583 
1362 0.888724 0.0938914 
1309 0.908285 0.112153 
1310 0.900806 -0.00652912 
1311 0.898203 0.145529 
1312 0.939546 -0.0589475 
1313 0.927567 0.0540572 
1314 0.895437 -0.0731422 
1261 0.902347 0.0324534 
1262 0.921625 0.127495 
1263 0.925478 -0.0136488 
1264 0.892495 0.150491 
1265 0.885988 -0.0235338 
1266 0.92384 0.0428622 
1213 0.887602 0.141307 
1214 0.93926 0.00702006 
1215 0.912173 0.136604 
1216 0.88809 -0.00196498 
1217 0.896214 0.114158 
1218 0.899869 -0.0695488 
1165 0.943659 -0.055449 
1166 0.88179 0.163328 
1167 0.876671 -0.0111864 
1168 0.940312 0.0476243 
1169 0.909365 -0.109717 
1170 0.932708 0.0698373 
1117 0.921392 0.0680559 
1118 0.902474 -0.0463026 
1119 0.876715 0.0867049 
1698 0.92935 0.0550682 
1456 0.926805 0.0481769 
1457 0.948523 -0.108882 
1458 0.88819 0.138664 
1741 0.89834 -0.0594758 
1742 0.897659 0.0560937 
1743 0.934699 0.00636385 
1744 0.875657 0.205905 
1745 0.913193 0.0549709 
1746 0.908294 0.0502216 
1693 0.914895 0.0640331 
1694 0.900153 -0.107122 
1695 0.917155 0.0740698 
1696 0.884334 0.0664282 
1697 0.865493 0.238053 
1645 0.896569 -0.108008 
1646 0.928899 -0.0182591 
1647 0.930716 -0.0700519 
1648 0.895334 0.181221 
1649 0.927663 0.0333184 
1650 0.924438 0.155405 
1597 0.931153 0.00293595 
1598 0.918412 -0.0874859 
1599 0.934203 0.088853 
1600 0.905161 -0.020516 
1601 0.893355 0.122292 
1602 0.906758 -0.0388814 
1549 0.921514 -0.0661882 
1550 0.894207 0.144041 
1551 0.895096 -0.00626267 
1552 0.870179 0.136668 
1553 0.87664 -0.00149011 
1554 0.902078 0.10628 
1501 0.9181 0.0883867 
1502 0.910672 -0.045498 
1503 0.889264 0.0776058 
1504 0.901611 -0.0256132 
1505 0.889273 0.150526 
1506 0.938772 -0.011766 
1453 0.909774 -0.0319543 
1454 0.896345 0.0648001 
1455 0.908484 -0.0706754 
2128 0.912578 0.0567741 
1792 0.941525 -0.0343312 
1793 0.930376 0.113774 
2129 0.941945 -0.0598275 
1794 0.930979 -0.104088 
2130 0.918227 0.114082 
2077 0.893323 -0.0965985 
2078 0.892676 -0.213611 
2079 0.916183 0.0312017 
2080 0.895636 -0.0618046 
2081 0.903283 0.0622317 
2082 0.900791 -0.0600012 
2029 0.901893 -0.176061 
2030 0.922999 0.00319386 
2031 0.91122 -0.128692 
2032 0.922186 0.0723841 
2033 0.912923 -0.054341 
2034 0.874192 0.142205 
1981 0.930878 0.0455363 
1982 0.904723 -0.111254 
1983 0.905926 -0.0410309 
1984 0.878792 -0.0858999 
1985 0.923177 0.123363 
1986 0.908962 -0.0021711 
1933 0.889768 -0.00950416 
1934 0.925475 0.0281231 
1935 0.893653 -0.121225 
1936 0.887823 0.104373 
1937 0.900432 0.00849112 
1938 0.908874 0.0834168 
1885 0.916952 0.0967457 
1886 0.927013 0.0241735 
1887 0.925871 0.139766 
1888 0.897077 -0.0618157 
1889 0.890979 0.0499972 
1890 0.917914 -0.0514488 
1837 0.932223 -0.0651625 
1838 0.89907 0.153016 
1839 0.885787 0.00110038 
1840 0.920912 0.0132434 
1841 0.919789 -0.069886 
1842 0.935032 -0.0681718 
1789 0.950054 0.0850612 
1790 0.928746 -0.0514827 
2126 0.845128 -0.0753489 
2127 0.885926 -0.0975482 
1791 0.919416 0.106226 
2464 0.894293 -0.103442 
2465 0.940555 0.00549934 
2466 0.916077 -0.21558 
2413 0.922201 -0.0248231 
2414 0.898189 0.114327 
2415 0.892861 -0.128073 
2416 0.906136 -0.0218427 
2417 0.890661 -0.121542 
2418 0.905786 -0.0860571 
2365 0.897765 0.0358759 
2366 0.910959 -0.00976985 
2367 0.879551 0.0589654 
2368 0.918343 -0.193958 
2369 0.935489 -0.0225057 
2370 0.939928 -0.120521 
2317 0.942535 -0.0928363 
2318 0.952866 0.101281 
2319 0.902064 -0.0609213 
2320 0.92647 -0.0109306 
2321 0.934431 -0.124336 
2322 0.905689 0.103503 
2269 0.915656 0.0228898 
2270 0.913756 -0.0963579 
2271 0.945221 0.0868503 
2272 0.947218 0.000654282 
2273 0.929402 0.0511166 
2274 0.902259 -0.0725019 
2221 0.90742 -0.0859001 
2222 0.933775 -0.00320709 
2223 0.957459 -0.116846 
2224 0.913008 0.0913749 
2225 0.895442 -0.0630236 
2226 0.903213 0.0497364 
2173 0.903769 0.0635248 
2174 0.895508 -0.179354 
2175 0.92883 -0.0579224 
2176 0.89649 -0.126232 
2177 0.918866 0.092215 
2178 0.940088 -0.0544016 
2461 0.89284 0.121877 
2125 0.847348 -0.190935 
2462 0.918467 -0.0365183 
2463 0.882777 0.0743318 
21 0.865167 -0.236006 
168 0.901717 -0.165948 
115 0.935827 0.0635514 
116 0.937381 0.0402197 
117 0.91878 -0.0888784 
118 0.943635 0.0310384 
119 0.886786 -0.218565 
120 0.892824 -0.0599173 
67 0.911416 0.0708782 
68 0.959607 0.0350264 
69 0.92368 -0.00118213 
70 0.889215 -0.145092 
71 0.913803 -0.086124 
72 0.848186 -0.217969 
19 0.946854 0.0565229 
20 0.925807 0.104594 
22 0.863856 -0.0971563 
23 0.839024 -0.187686 
24 0.853635 -0.0468286 
307 0.91564 0.0207015 
308 0.895316 0.14923 
309 0.948966 0.0693636 
310 0.91252 0.111597 
311 0.892687 -0.146481 
312 0.894275 0.0994013 
259 0.880315 0.084873 
260 0.92146 0.021176 
261 0.868325 0.100453 
262 0.861917 0.0155672 
263 0.893772 0.125831 
264 0.897667 -0.00797921 
211 0.912905 0.0128305 
212 0.944776 0.13953 
213 0.904782 -0.119069 
214 0.915687 0.0834066 
215 0.932828 -0.0301171 
216 0.956432 0.0961587 
163 0.933513 0.137567 
164 0.928435 0.0416149 
165 0.927411 -0.00589958 
166 0.910475 -0.0839432 
167 0.901055 0.0314248 
358 0.953882 -0.0267664 
694 0.936221 0.136035 
504 0.924506 0.173843 
451 0.90409 0.0907529 
452 0.910735 -0.0428861 
453 0.909205 0.0580335 
454 0.905229 -0.127312 
455 0.909599 0.168401 
456 0.90449 0.0439887 
403 0.919682 -0.0849223 
404 0.877126 0.108949 
405 0.888061 -0.0110726 
406 0.893325 0.055035 
407 0.926965 -0.0457527 
408 0.922379 0.0258813 
355 0.92512 0.110783 
691 0.933541 -0.121953 
356 0.922475 -0.0133956 
692 0.895665 0.0853545 
357 0.900028 0.186606 
693 0.933809 0.0543002 
359 0.882368 -0.0712089 
695 0.933808 0.048895 
360 0.877904 -0.134134 
696 0.905488 0.203389 
643 0.9204 -0.0562413 
644 0.892037 -0.135875 
645 0.920114 0.116838 
646 0.913118 0.0421773 
647 0.920391 0.174967 
648 0.915439 0.113931 
595 0.893548 -0.123991 
596 0.899821 0.0508436 
597 0.927569 -0.0193937 
598 0.93944 0.101088 
599 0.951645 0.0657154 
600 0.943443 0.163621 
547 0.949245 0.0857776 
548 0.934091 -0.0391346 
549 0.896354 0.0299168 
550 0.914656 -0.119481 
551 0.94824 0.0495885 
552 0.940244 0.0739773 
499 0.939011 -0.00641917 
500 0.928445 0.0763776 
501 0.912195 -0.157543 
502 0.900848 -0.0358984 
503 0.905509 0.0669661 
1031 0.936539 0.0347935 
840 0.899495 -0.166955 
787 0.942369 0.0675811 
788 0.933056 0.113831 
789 0.888059 -0.0801829 
790 0.936566 0.0626647 
791 0.909117 -0.15399 
792 0.865128 0.0489096 
739 0.929761 0.105711 
740 0.924834 0.0536994 
741 0.940129 0.148 
742 0.940289 -0.000762286 
743 0.923581 0.0324124 
744 0.908252 -0.00892191 
1027 0.887575 0.120591 
1028 0.921547 -0.0641739 
1029 0.92696 0.134815 
1030 0.93409 0.0814347 
1032 0.901997 -0.0542192 
979 0.911181 0.0018349 
980 0.957139 -1.91974e-05 
981 0.947758 0.0754487 
982 0.918546 0.181222 
983 0.908343 -0.0685552 
984 0.885447 0.0499997 
931 0.914102 0.201339 
932 0.947455 -0.0799206 
933 0.960623 0.0538795 
934 0.918647 0.11959 
935 0.893652 0.0719664 
936 0.885763 -0.0563238 
883 0.894873 0.0547111 
884 0.925414 -0.0153388 
885 0.960295 -0.02242 
886 0.928576 0.136423 
887 0.908095 -0.141071 
888 0.924413 0.0502113 
835 0.892385 0.183488 
836 0.973212 -0.046057 
837 0.923596 -0.0464525 
838 0.856929 -0.0397683 
839 0.888276 0.0445435 
1368 0.903499 -0.00460006 
1176 0.898253 0.0223753 
1123 0.923248 0.12537 
1124 0.936404 -0.0507009 
1125 0.915645 0.112824 
1126 0.92321 0.0367153 
1127 0.919752 0.061757 
1128 0.934376 0.0278515 
1075 0.914409 -0.0334658 
1411 0.884264 0.147627 
1076 0.919608 0.0592141 
1412 0.914538 -0.031117 
1077 0.915764 0.0796514 
1413 0.913266 0.155052 
1078 0.944069 0.0639048 
1414 0.915732 -0.011676 
1079 0.938858 -0.022857 
1415 0.904164 0.0571219 
1080 0.940002 0.118587 
1416 0.887607 -0.131941 
1363 0.907549 -0.069669 
1364 0.918646 0.0732547 
1365 0.916209 -0.0271403 
1366 0.908316 0.10356 
1367 0.878291 -0.0884756 
1315 0.886087 0.0296037 
1316 0.910344 -0.133345 
1317 0.940743 0.0812664 
1318 0.917817 -0.0250067 
1319 0.916037 0.116214 
1320 0.93339 -0.0962897 
1267 0.906988 -0.122941 
1268 0.913045 0.0559995 
1269 0.923237 -0.0412736 
1270 0.901006 0.09938 
1271 0.91374 0.0356472 
1272 0.939125 -0.00972799 
1219 0.917266 0.0440935 
1220 0.894748 -0.119691 
1221 0.923271 0.0708467 
1222 0.92834 0.0272298 
1223 0.902663 0.159574 
1224 0.938706 -0.0674909 
1171 0.896999 -0.103876 
1172 0.888853 0.0146723 
1173 0.928897 0.0464971 
1174 0.915818 0.167119 
1175 0.934191 0.0136978 
1512 0.870795 -0.079715 
1459 0.916172 -0.00367436 
1460 0.911036 0.131677 
1461 0.891415 -0.0239147 
1462 0.91847 0.0806659 
1463 0.880644 -0.113301 
1464 0.92592 0.0270735 
1747 0.888105 -0.179848 
1748 0.922094 -0.0833505 
1749 0.949533 -0.0868079 
1750 0.944207 -0.0188622 
1751 0.941691 -0.0581259 
1752 0.915754 0.0564619 
1699 0.890231 0.0611145 
1700 0.893156 -0.160327 
1701 0.933764 -0.00608696 
1702 0.930486 -0.0677093 
1703 0.951813 0.0852265 
1704 0.922464 0.0478933 
1651 0.901506 -0.0361647 
1652 0.91584 0.0310094 
1653 0.920895 -0.107986 
1654 0.868377 0.0794214 
1655 0.908954 0.00550756 
1656 0.893546 0.134431 
1603 0.925508 0.135126 
1604 0.917278 -0.0621049 
1605 0.910549 0.0219179 
1606 0.901814 -0.0506418 
1607 0.857723 0.0690668 
1608 0.914553 -0.0654621 
1555 0.902957 -0.0465565 
1556 0.897398 0.0458452 
1557 0.916962 -0.0797296 
1558 0.912083 0.0698868 
1559 0.924432 -0.112513 
1560 0.894633 0.090457 
1507 0.903425 0.118697 
1508 0.914612 -0.0337359 
1509 0.888575 0.0615734 
1510 0.892584 -0.0718877 
1511 0.893949 0.0112476 
1848 0.931162 0.0706318 
2131 0.893878 0.0161131 
1795 0.924197 -0.117563 
1796 0.889194 -0.153254 
2132 0.900601 0.196936 
2133 0.929996 0.0568243 
1797 0.922211 0.0174705 
1798 0.952844 -0.127399 
2134 0.918986 0.144365 
2135 0.919127 -0.0223542 
1799 0.925212 0.0109013 
1800 0.939329 -0.0359174 
2136 0.884641 0.186215 
2083 0.909158 0.191277 
2084 0.918242 0.0356633 
2085 0.907594 0.102537 
2086 0.889932 0.0108649 
2087 0.889323 0.108224 
2088 0.875692 -0.0425623 
2035 0.906049 0.0259268 
2036 0.90057 0.104667 
2037 0.90466 -0.0491768 
2038 0.922295 0.0807986 
2039 0.90308 -0.0888101 
2040 0.862655 0.109118 
1987 0.875339 0.10253 
1988 0.921051 -0.0384082 
1989 0.892857 0.076477 
1990 0.925809 -0.0608535 
1991 0.916456 0.0911147 
1992 0.904991 -0.0862856 
1939 0.936505 -0.0515358 
1940 0.932395 0.0803271 
1941 0.928471 -0.0711559 
1942 0.899673 0.176242 
1943 0.881349 -0.0372916 
1944 0.936893 -0.0532804 
1891 0.892572 -0.0169467 
1892 0.906151 -0.0466084 
1893 0.917487 0.101638 
1894 0.855103 -0.041342 
1895 0.889283 0.128319 
1896 0.957297 -0.11384 
1843 0.914178 -0.197459 
1844 0.911961 0.0844002 
1845 0.867147 -0.0640528 
1846 0.910461 0.0189914 
1847 0.933715 -0.0121535 
2323 0.945487 0.0637456 
2184 0.90437 0.0271622 
2467 0.929474 0.0172023 
2468 0.927118 0.0670711 