ITEM: TIMESTEP
2000
ITEM: NUMBER OF ATOMS
2496
ITEM: BOX BOUNDS xy xz yz pp pp pp
-95.4456 177.515 -93.0808
0.0189427 165.461 0
-0.2 0.2 0
ITEM: ATOMS id mol type x y z
1 1 1 -89.9158 165.222 0
2 2 1 -86.262 165.222 0
3 3 1 -82.6314 165.307 0
4 4 1 -78.9573 165.361 0
5 5 1 -75.1916 165.434 0
6 6 1 21.6662 0.127454 0
7 7 1 25.3495 0.203064 0
8 8 1 29.0717 0.259135 0
9 9 1 32.7618 0.387168 0
10 10 1 36.4548 0.357794 0
11 11 1 40.1282 0.462546 0
12 12 1 43.8991 0.550209 0
13 13 1 47.6144 0.582571 0
14 14 1 51.2783 0.754817 0
15 15 1 54.9703 0.86017 0
16 16 1 58.6937 0.970213 0
17 17 1 62.3634 0.981243 0
18 18 1 65.9881 1.01705 0
19 19 1 69.787 1.11599 0
20 20 1 73.5322 1.18793 0
21 21 1 77.2063 1.22963 0
22 22 1 80.9936 1.2906 0
23 23 1 84.701 1.37678 0
24 24 1 88.3595 1.44012 0
25 25 1 91.9799 1.52356 0
26 26 1 95.8154 1.51442 0
27 27 1 99.4654 1.53539 0
28 28 1 103.154 1.61826 0
29 29 1 106.885 1.71556 0
30 30 1 110.5 1.83156 0
31 31 1 114.237 1.88035 0
32 32 1 117.909 1.93105 0
33 33 1 121.635 2.0039 0
34 34 1 125.381 2.04594 0
35 35 1 129.16 2.19767 0
36 36 1 132.906 2.27691 0
37 37 1 136.646 2.34342 0
38 38 1 140.314 2.36836 0
39 39 1 144.018 2.36086 0
40 40 1 147.726 2.48994 0
41 41 1 151.415 2.53235 0
42 42 1 155.094 2.50711 0
43 43 1 158.794 2.69896 0
44 44 1 162.422 2.76054 0
45 45 1 166.119 2.84738 0
46 46 1 169.833 2.86399 0
47 47 1 173.481 2.83939 0
48 48 1 -2.71271 2.88662 0
49 49 1 1.06255 2.9908 0
50 50 1 4.89949 3.03877 0
51 51 1 8.52136 3.0683 0
52 52 1 12.2553 3.14766 0
53 53 1 15.915 3.105 0
54 54 1 19.6065 3.23434 0
55 55 1 23.3421 3.31961 0
56 56 1 27.0344 3.4228 0
57 57 1 30.7615 3.47021 0
58 58 1 34.4633 3.56808 0
59 59 1 38.1749 3.68235 0
60 60 1 41.8606 3.70354 0
61 61 1 45.6693 3.73861 0
62 62 1 49.3484 3.9258 0
63 63 1 53.0331 3.99695 0
64 64 1 56.807 4.09073 0
65 65 1 60.4437 4.12482 0
66 66 1 64.1413 4.18136 0
67 67 1 67.8756 4.20095 0
68 68 1 71.6106 4.35255 0
69 69 1 75.3196 4.39211 0
70 70 1 78.9561 4.45029 0
71 71 1 82.7305 4.53168 0
72 72 1 86.3801 4.58076 0
73 73 1 90.0768 4.66187 0
74 74 1 93.8137 4.71615 0
75 75 1 97.5473 4.8319 0
76 76 1 101.179 4.83468 0
77 77 1 104.883 4.907 0
78 78 1 108.536 5.01711 0
79 79 1 112.248 5.10274 0
80 80 1 115.958 5.2011 0
81 81 1 119.621 5.22292 0
82 82 1 123.375 5.27084 0
83 83 1 127.101 5.28665 0
84 84 1 130.838 5.47562 0
85 85 1 134.642 5.49859 0
86 86 1 138.394 5.57715 0
87 87 1 142.055 5.63029 0
88 88 1 145.724 5.69044 0
89 89 1 149.482 5.70657 0
90 90 1 153.217 5.69043 0
91 91 1 156.874 5.84967 0
92 92 1 160.528 5.92973 0
93 93 1 164.198 5.97844 0
94 94 1 167.928 6.04506 0
95 95 1 171.627 6.04085 0
96 96 1 -4.52971 6.08594 0
97 97 1 -0.777635 6.14971 0
98 98 1 2.85836 6.33522 0
99 99 1 6.53518 6.30497 0
100 100 1 10.2303 6.32745 0
101 101 1 13.9487 6.36119 0
102 102 1 17.6451 6.43552 0
103 103 1 21.3331 6.48188 0
104 104 1 25.0667 6.5761 0
105 105 1 28.7913 6.63777 0
106 106 1 32.5042 6.69636 0
107 107 1 36.1971 6.82648 0
108 108 1 39.9428 6.90196 0
109 109 1 43.6455 6.95311 0
110 110 1 47.4285 7.15097 0
111 111 1 51.1235 7.23455 0
112 112 1 54.8647 7.24735 0
113 113 1 58.5281 7.29908 0
114 114 1 62.2329 7.35922 0
115 115 1 65.8866 7.3513 0
116 116 1 69.6559 7.53364 0
117 117 1 73.3888 7.58584 0
118 118 1 77.0859 7.61718 0
119 119 1 80.8207 7.68556 0
120 120 1 84.4945 7.76252 0
121 121 1 88.1819 7.81637 0
122 122 1 91.9066 7.87807 0
123 123 1 95.562 7.98682 0
124 124 1 99.2961 8.01317 0
125 125 1 102.977 8.12688 0
126 126 1 106.644 8.25882 0
127 127 1 110.359 8.32093 0
128 128 1 114.106 8.39803 0
129 129 1 117.759 8.49974 0
130 130 1 121.44 8.44857 0
131 131 1 125.096 8.51448 0
132 132 1 128.843 8.59581 0
133 133 1 132.606 8.62902 0
134 134 1 136.384 8.68288 0
135 135 1 140.075 8.80658 0
136 136 1 143.8 8.86259 0
137 137 1 147.496 8.89899 0
138 138 1 151.217 8.94899 0
139 139 1 154.928 9.09416 0
140 140 1 158.604 9.10417 0
141 141 1 162.308 9.13399 0
142 142 1 165.981 9.20382 0
143 143 1 169.736 9.27651 0
144 144 1 -6.48071 9.29055 0
145 145 1 -2.68812 9.3489 0
146 146 1 1.00115 9.46087 0
147 147 1 4.69427 9.48486 0
148 148 1 8.3581 9.50035 0
149 149 1 12.0921 9.5059 0
150 150 1 15.7389 9.59039 0
151 151 1 19.4173 9.71159 0
152 152 1 23.1244 9.7774 0
153 153 1 26.8068 9.79169 0
154 154 1 30.5675 9.91024 0
155 155 1 34.3183 10.0415 0
156 156 1 38.0747 10.1176 0
157 157 1 41.6968 10.1396 0
158 158 1 45.4189 10.2537 0
159 159 1 49.1334 10.3752 0
160 160 1 52.8711 10.4861 0
161 161 1 56.6324 10.4807 0
162 162 1 60.2941 10.5449 0
163 163 1 64.0342 10.6033 0
164 164 1 67.7694 10.667 0
165 165 1 71.4542 10.785 0
166 166 1 75.2048 10.8152 0
167 167 1 78.9007 10.8621 0
168 168 1 82.5485 10.9086 0
169 169 1 86.3212 10.995 0
170 170 1 89.9231 11.0508 0
171 171 1 93.633 11.1627 0
172 172 1 97.3279 11.2092 0
173 173 1 101.01 11.3003 0
174 174 1 104.693 11.4068 0
175 175 1 108.404 11.4528 0
176 176 1 112.159 11.5587 0
177 177 1 115.88 11.7425 0
178 178 1 119.52 11.7255 0
179 179 1 123.177 11.7157 0
180 180 1 126.946 11.7769 0
181 181 1 130.642 11.7888 0
182 182 1 134.389 11.8468 0
183 183 1 138.167 11.9042 0
184 184 1 141.897 11.9734 0
185 185 1 145.639 12.0225 0
186 186 1 149.333 12.1784 0
187 187 1 152.983 12.1781 0
188 188 1 156.678 12.257 0
189 189 1 160.457 12.3334 0
190 190 1 164.077 12.3053 0
191 191 1 167.774 12.4218 0
192 192 1 -8.36671 12.473 0
193 193 1 -4.68509 12.4873 0
194 194 1 -0.93102 12.6016 0
195 195 1 2.7793 12.6655 0
196 196 1 6.47581 12.6422 0
197 197 1 10.1821 12.7376 0
198 198 1 13.8819 12.8103 0
199 199 1 17.5185 12.9106 0
200 200 1 21.2339 13.0238 0
201 201 1 24.9281 13.0329 0
202 202 1 28.6532 13.0552 0
203 203 1 32.328 13.1566 0
204 204 1 36.1246 13.243 0
205 205 1 39.8548 13.3455 0
206 206 1 43.4935 13.4432 0
207 207 1 47.125 13.5677 0
208 208 1 50.9293 13.5853 0
209 209 1 54.6628 13.6133 0
210 210 1 58.4028 13.6905 0
211 211 1 62.1039 13.7002 0
212 212 1 65.8374 13.7729 0
213 213 1 69.5044 13.9581 0
214 214 1 73.2179 14.0359 0
215 215 1 76.9143 14.0654 0
216 216 1 80.6606 14.0978 0
217 217 1 84.3405 14.1466 0
218 218 1 87.9504 14.3004 0
219 219 1 91.6391 14.3247 0
220 220 1 95.4409 14.3391 0
221 221 1 99.0769 14.4481 0
222 222 1 102.832 14.5448 0
223 223 1 106.474 14.6025 0
224 224 1 110.236 14.736 0
225 225 1 113.899 14.8915 0
226 226 1 117.663 14.922 0
227 227 1 121.346 14.9358 0
228 228 1 125.031 14.9825 0
229 229 1 128.747 15.0098 0
230 230 1 132.422 15.0443 0
231 231 1 136.171 15.121 0
232 232 1 139.98 15.1181 0
233 233 1 143.684 15.2198 0
234 234 1 147.356 15.3275 0
235 235 1 151.066 15.4559 0
236 236 1 154.77 15.3835 0
237 237 1 158.489 15.4956 0
238 238 1 162.183 15.5999 0
239 239 1 165.841 15.5974 0
240 240 1 -10.3267 15.6107 0
241 241 1 -6.60214 15.7298 0
242 242 1 -2.90869 15.7542 0
243 243 1 0.762121 15.8167 0
244 244 1 4.5357 15.9075 0
245 245 1 8.20933 15.9945 0
246 246 1 11.9531 16.0697 0
247 247 1 15.697 16.1015 0
248 248 1 19.2943 16.1522 0
249 249 1 23.0661 16.1821 0
250 250 1 26.7423 16.2393 0
251 251 1 30.3649 16.307 0
252 252 1 34.0892 16.391 0
253 253 1 37.8133 16.4886 0
254 254 1 41.5976 16.6044 0
255 255 1 45.2346 16.7221 0
256 256 1 48.9773 16.762 0
257 257 1 52.6371 16.7975 0
258 258 1 56.484 16.8518 0
259 259 1 60.1966 16.8531 0
260 260 1 63.8663 16.904 0
261 261 1 67.5803 17.049 0
262 262 1 71.3211 17.1439 0
263 263 1 75.0036 17.213 0
264 264 1 78.6824 17.2873 0
265 265 1 82.3612 17.3122 0
266 266 1 86.0916 17.4337 0
267 267 1 89.7344 17.544 0
268 268 1 93.4392 17.5456 0
269 269 1 97.1533 17.5856 0
270 270 1 100.907 17.6263 0
271 271 1 104.608 17.7424 0
272 272 1 108.381 17.8824 0
273 273 1 112.074 17.9961 0
274 274 1 115.743 18.1186 0
275 275 1 119.413 18.1595 0
276 276 1 123.101 18.1602 0
277 277 1 126.881 18.2662 0
278 278 1 130.521 18.3227 0
279 279 1 134.212 18.3816 0
280 280 1 138.009 18.4143 0
281 281 1 141.71 18.3731 0
282 282 1 145.364 18.4516 0
283 283 1 149.123 18.5691 0
284 284 1 152.861 18.6168 0
285 285 1 156.589 18.6308 0
286 286 1 160.334 18.7356 0
287 287 1 163.914 18.832 0
288 288 1 -12.3207 18.7992 0
289 289 1 -8.59897 18.844 0
290 290 1 -4.80782 18.9525 0
291 291 1 -1.09282 19.0066 0
292 292 1 2.61732 19.1363 0
293 293 1 6.28685 19.1572 0
294 294 1 10.019 19.1817 0
295 295 1 13.7697 19.2312 0
296 296 1 17.4206 19.2404 0
297 297 1 21.0658 19.3642 0
298 298 1 24.7535 19.4445 0
299 299 1 28.4825 19.4917 0
300 300 1 32.2151 19.5935 0
301 301 1 35.9041 19.717 0
302 302 1 39.6013 19.7139 0
303 303 1 43.2774 19.8875 0
304 304 1 47.0471 19.9645 0
305 305 1 50.7474 19.9776 0
306 306 1 54.4497 19.9632 0
307 307 1 58.156 20.0944 0
308 308 1 61.9579 20.0603 0
309 309 1 65.6494 20.2012 0
310 310 1 69.3391 20.3496 0
311 311 1 73.0297 20.3598 0
312 312 1 76.7585 20.4583 0
313 313 1 80.4562 20.5531 0
314 314 1 84.1807 20.5785 0
315 315 1 87.8942 20.7295 0
316 316 1 91.6037 20.8082 0
317 317 1 95.2645 20.8246 0
318 318 1 98.9579 20.8574 0
319 319 1 102.633 20.9212 0
320 320 1 106.39 21.0241 0
321 321 1 110.086 21.14 0
322 322 1 113.749 21.2669 0
323 323 1 117.487 21.3244 0
324 324 1 121.214 21.3309 0
325 325 1 124.933 21.4123 0
326 326 1 128.64 21.5451 0
327 327 1 132.329 21.6081 0
328 328 1 136.005 21.5968 0
329 329 1 139.732 21.6196 0
330 330 1 143.419 21.6471 0
331 331 1 147.159 21.6957 0
332 332 1 150.799 21.7585 0
333 333 1 154.595 21.8185 0
334 334 1 158.302 21.8196 0
335 335 1 162 21.9346 0
336 336 1 -14.1617 22.0262 0
337 337 1 -10.4638 21.9989 0
338 338 1 -6.71909 22.0723 0
339 339 1 -3.0266 22.138 0
340 340 1 0.639869 22.2252 0
341 341 1 4.44259 22.2821 0
342 342 1 8.08013 22.398 0
343 343 1 11.8451 22.4363 0
344 344 1 15.5562 22.4509 0
345 345 1 19.1775 22.522 0
346 346 1 22.8263 22.6739 0
347 347 1 26.5139 22.6761 0
348 348 1 30.2254 22.7498 0
349 349 1 33.9902 22.7959 0
350 350 1 37.694 22.8682 0
351 351 1 41.3501 22.9953 0
352 352 1 45.0845 23.1919 0
353 353 1 48.8222 23.1198 0
354 354 1 52.5343 23.1729 0
355 355 1 56.1783 23.2022 0
356 356 1 59.9309 23.2604 0
357 357 1 63.6498 23.3478 0
358 358 1 67.3714 23.4827 0
359 359 1 71.0806 23.5624 0
360 360 1 74.8012 23.6238 0
361 361 1 78.5039 23.7131 0
362 362 1 82.1457 23.7342 0
363 363 1 85.856 23.8842 0
364 364 1 89.6245 23.9648 0
365 365 1 93.3573 24.0736 0
366 366 1 97.0263 24.1516 0
367 367 1 100.763 24.0671 0
368 368 1 104.441 24.1359 0
369 369 1 108.144 24.2671 0
370 370 1 111.849 24.4202 0
371 371 1 115.493 24.4803 0
372 372 1 119.294 24.4449 0
373 373 1 123.033 24.6152 0
374 374 1 126.678 24.6685 0
375 375 1 130.392 24.73 0
376 376 1 134.104 24.7827 0
377 377 1 137.768 24.8126 0
378 378 1 141.523 24.8649 0
379 379 1 145.224 24.8691 0
380 380 1 148.894 24.9337 0
381 381 1 152.561 25.0055 0
382 382 1 156.274 25.1087 0
383 383 1 159.977 25.1683 0
384 384 1 -16.0557 25.2087 0
385 385 1 -12.3747 25.2414 0
386 386 1 -8.69874 25.2538 0
387 387 1 -4.92929 25.3451 0
388 388 1 -1.25 25.3814 0
389 389 1 2.47825 25.477 0
390 390 1 6.14698 25.4998 0
391 391 1 9.81437 25.6621 0
392 392 1 13.5819 25.702 0
393 393 1 17.3348 25.7128 0
394 394 1 20.9949 25.7706 0
395 395 1 24.6579 25.8923 0
396 396 1 28.3308 25.8762 0
397 397 1 32.0243 25.9591 0
398 398 1 35.752 26.0113 0
399 399 1 39.4115 26.1075 0
400 400 1 43.1453 26.2783 0
401 401 1 46.9062 26.3191 0
402 402 1 50.5695 26.3817 0
403 403 1 54.278 26.4716 0
404 404 1 57.9139 26.4788 0
405 405 1 61.7197 26.5153 0
406 406 1 65.4482 26.5603 0
407 407 1 69.176 26.7873 0
408 408 1 72.8849 26.8382 0
409 409 1 76.5883 26.9061 0
410 410 1 80.2611 26.9992 0
411 411 1 83.9282 27.0196 0
412 412 1 87.6572 27.1439 0
413 413 1 91.3335 27.2849 0
414 414 1 95.1138 27.3084 0
415 415 1 98.8645 27.3674 0
416 416 1 102.572 27.3161 0
417 417 1 106.221 27.4276 0
418 418 1 109.912 27.5294 0
419 419 1 113.643 27.642 0
420 420 1 117.377 27.7074 0
421 421 1 121.017 27.7915 0
422 422 1 124.739 27.8824 0
423 423 1 128.471 27.8915 0
424 424 1 132.168 27.9378 0
425 425 1 135.87 27.9662 0
426 426 1 139.565 28.0038 0
427 427 1 143.258 28.0704 0
428 428 1 146.947 28.1211 0
429 429 1 150.674 28.194 0
430 430 1 154.363 28.2658 0
431 431 1 158.086 28.3851 0
432 432 1 -18.1147 28.407 0
433 433 1 -14.2183 28.3943 0
434 434 1 -10.5699 28.4447 0
435 435 1 -6.83808 28.4624 0
436 436 1 -3.17505 28.5626 0
437 437 1 0.482533 28.638 0
438 438 1 4.18377 28.6594 0
439 439 1 7.87139 28.7912 0
440 440 1 11.6277 28.8297 0
441 441 1 15.3228 28.9347 0
442 442 1 19.0659 28.9827 0
443 443 1 22.6666 29.0621 0
444 444 1 26.3887 29.1243 0
445 445 1 30.0864 29.1685 0
446 446 1 33.8035 29.2143 0
447 447 1 37.4614 29.3428 0
448 448 1 41.2458 29.3801 0
449 449 1 44.9003 29.4503 0
450 450 1 48.6134 29.4843 0
451 451 1 52.283 29.5883 0
452 452 1 56.0508 29.6725 0
453 453 1 59.7753 29.7389 0
454 454 1 63.4735 29.7181 0
455 455 1 67.1809 29.888 0
456 456 1 70.9211 30.0038 0
457 457 1 74.5854 30.0616 0
458 458 1 78.3635 30.1314 0
459 459 1 82.0477 30.2309 0
460 460 1 85.776 30.3797 0
461 461 1 89.4585 30.4195 0
462 462 1 93.1406 30.508 0
463 463 1 96.9196 30.5108 0
464 464 1 100.669 30.5459 0
465 465 1 104.325 30.6056 0
466 466 1 107.92 30.6893 0
467 467 1 111.669 30.771 0
468 468 1 115.368 30.9102 0
469 469 1 119.163 30.9494 0
470 470 1 122.862 31.0292 0
471 471 1 126.556 31.0754 0
472 472 1 130.241 31.1347 0
473 473 1 133.972 31.1376 0
474 474 1 137.629 31.1609 0
475 475 1 141.348 31.2235 0
476 476 1 145.027 31.3344 0
477 477 1 148.681 31.3592 0
478 478 1 152.428 31.4721 0
479 479 1 156.092 31.5131 0
480 480 1 -19.9597 31.602 0
481 481 1 -16.2441 31.5909 0
482 482 1 -12.494 31.6951 0
483 483 1 -8.81506 31.6941 0
484 484 1 -5.05768 31.8339 0
485 485 1 -1.37223 31.7995 0
486 486 1 2.29528 31.8901 0
487 487 1 5.97501 31.9856 0
488 488 1 9.67131 32.0186 0
489 489 1 13.3908 32.1104 0
490 490 1 17.0991 32.1533 0
491 491 1 20.7944 32.263 0
492 492 1 24.5244 32.3441 0
493 493 1 28.1715 32.4166 0
494 494 1 31.8058 32.4379 0
495 495 1 35.4573 32.5223 0
496 496 1 39.279 32.5931 0
497 497 1 42.9922 32.5443 0
498 498 1 46.6766 32.6522 0
499 499 1 50.3474 32.8015 0
500 500 1 54.0859 32.8163 0
501 501 1 57.8169 32.9444 0
502 502 1 61.5935 32.9153 0
503 503 1 65.2767 33.0338 0
504 504 1 68.9503 33.1313 0
505 505 1 72.6937 33.2347 0
506 506 1 76.3338 33.3325 0
507 507 1 80.0349 33.428 0
508 508 1 83.7471 33.4857 0
509 509 1 87.4902 33.5626 0
510 510 1 91.2464 33.6469 0
511 511 1 94.857 33.685 0
512 512 1 98.6418 33.7166 0
513 513 1 102.336 33.8142 0
514 514 1 106.006 33.8809 0
515 515 1 109.691 33.8967 0
516 516 1 113.416 34.0041 0
517 517 1 117.198 34.0933 0
518 518 1 120.897 34.2108 0
519 519 1 124.67 34.2203 0
520 520 1 128.368 34.3049 0
521 521 1 132.019 34.3886 0
522 522 1 135.713 34.346 0
523 523 1 139.395 34.3774 0
524 524 1 143.107 34.5369 0
525 525 1 146.773 34.6097 0
526 526 1 150.456 34.6221 0
527 527 1 154.153 34.7503 0
528 528 1 157.92 34.7457 0
529 529 1 -18.1442 34.8183 0
530 530 1 -14.445 34.8506 0
531 531 1 -10.6991 34.9123 0
532 532 1 -7.01491 35 0
533 533 1 -3.29969 35.0745 0
534 534 1 0.420433 35.06 0
535 535 1 4.07883 35.1717 0
536 536 1 7.77145 35.1938 0
537 537 1 11.4646 35.3397 0
538 538 1 15.1523 35.3716 0
539 539 1 18.8256 35.4293 0
540 540 1 22.5469 35.5094 0
541 541 1 26.2552 35.5928 0
542 542 1 29.9121 35.6266 0
543 543 1 33.5919 35.7272 0
544 544 1 37.2886 35.7768 0
545 545 1 41.006 35.8018 0
546 546 1 44.7038 35.8266 0
547 547 1 48.406 35.9043 0
548 548 1 52.1709 36.0703 0
549 549 1 55.8658 36.0842 0
550 550 1 59.6238 36.1989 0
551 551 1 63.258 36.209 0
552 552 1 67.112 36.2208 0
553 553 1 70.7609 36.4065 0
554 554 1 74.3951 36.4674 0
555 555 1 78.1465 36.6688 0
556 556 1 81.8476 36.6292 0
557 557 1 85.5414 36.7133 0
558 558 1 89.2455 36.748 0
559 559 1 92.9796 36.933 0
560 560 1 96.6732 36.96 0
561 561 1 100.415 36.939 0
562 562 1 104.09 37.0614 0
563 563 1 107.846 37.1383 0
564 564 1 111.505 37.1973 0
565 565 1 115.302 37.2837 0
566 566 1 118.99 37.3539 0
567 567 1 122.638 37.3611 0
568 568 1 126.382 37.5054 0
569 569 1 130.111 37.5731 0
570 570 1 133.809 37.6633 0
571 571 1 137.502 37.686 0
572 572 1 141.244 37.7367 0
573 573 1 144.906 37.7488 0
574 574 1 148.578 37.8574 0
575 575 1 152.285 37.8589 0
576 576 1 155.992 37.9007 0
577 577 1 -20.1055 37.9491 0
578 578 1 -16.4486 38.0866 0
579 579 1 -12.7224 38.1452 0
580 580 1 -8.95793 38.141 0
581 581 1 -5.22719 38.2234 0
582 582 1 -1.566 38.2757 0
583 583 1 2.13102 38.3458 0
584 584 1 5.80431 38.4033 0
585 585 1 9.51226 38.4748 0
586 586 1 13.2161 38.6065 0
587 587 1 16.9536 38.6807 0
588 588 1 20.587 38.6961 0
589 589 1 24.3088 38.7599 0
590 590 1 28.0205 38.8066 0
591 591 1 31.657 38.9216 0
592 592 1 35.401 38.9519 0
593 593 1 39.1097 39.0042 0
594 594 1 42.7754 39.0011 0
595 595 1 46.4796 39.1391 0
596 596 1 50.1518 39.1731 0
597 597 1 53.9144 39.2648 0
598 598 1 57.6408 39.378 0
599 599 1 61.3855 39.4421 0
600 600 1 65.0557 39.3897 0
601 601 1 68.7215 39.5243 0
602 602 1 72.5101 39.6706 0
603 603 1 76.2671 39.7632 0
604 604 1 79.9108 39.8873 0
605 605 1 83.6032 39.9481 0
606 606 1 87.291 39.9507 0
607 607 1 90.9737 40.0152 0
608 608 1 94.6786 40.1725 0
609 609 1 98.4806 40.1521 0
610 610 1 102.181 40.2516 0
611 611 1 105.92 40.2791 0
612 612 1 109.663 40.4032 0
613 613 1 113.335 40.4677 0
614 614 1 117.015 40.5081 0
615 615 1 120.754 40.5599 0
616 616 1 124.457 40.666 0
617 617 1 128.197 40.7771 0
618 618 1 131.861 40.8751 0
619 619 1 135.568 40.8475 0
620 620 1 139.288 40.9095 0
621 621 1 142.996 40.988 0
622 622 1 146.724 41.0206 0
623 623 1 150.412 41.1044 0
624 624 1 154.132 41.0125 0
625 625 1 -22.0515 41.1433 0
626 626 1 -18.3538 41.2205 0
627 627 1 -14.573 41.247 0
628 628 1 -10.9246 41.3365 0
629 629 1 -7.20472 41.4242 0
630 630 1 -3.5045 41.4516 0
631 631 1 0.154682 41.4992 0
632 632 1 3.84696 41.6014 0
633 633 1 7.56144 41.6721 0
634 634 1 11.3006 41.7603 0
635 635 1 14.9795 41.7996 0
636 636 1 18.7044 41.8621 0
637 637 1 22.3727 41.8827 0
638 638 1 26.0801 42.001 0
639 639 1 29.7738 42.0715 0
640 640 1 33.4288 42.1385 0
641 641 1 37.1636 42.1601 0
642 642 1 40.8048 42.2533 0
643 643 1 44.5546 42.2831 0
644 644 1 48.2629 42.4828 0
645 645 1 52.0217 42.5194 0
646 646 1 55.7383 42.6061 0
647 647 1 59.4141 42.716 0
648 648 1 63.1439 42.7681 0
649 649 1 66.8616 42.7369 0
650 650 1 70.6175 42.8388 0
651 651 1 74.3272 42.948 0
652 652 1 78.0189 43.0848 0
653 653 1 81.7268 43.1207 0
654 654 1 85.4073 43.106 0
655 655 1 89.0669 43.2173 0
656 656 1 92.8138 43.2312 0
657 657 1 96.5248 43.3168 0
658 658 1 100.207 43.4493 0
659 659 1 103.979 43.5028 0
660 660 1 107.678 43.5625 0
661 661 1 111.45 43.6181 0
662 662 1 115.117 43.7192 0
663 663 1 118.801 43.7828 0
664 664 1 122.473 43.8749 0
665 665 1 126.264 43.9486 0
666 666 1 129.991 44.0216 0
667 667 1 133.639 44.0577 0
668 668 1 137.297 44.0918 0
669 669 1 141.02 44.1703 0
670 670 1 144.824 44.1983 0
671 671 1 148.525 44.2266 0
672 672 1 152.269 44.3257 0
673 673 1 -23.957 44.3049 0
674 674 1 -20.2096 44.346 0
675 675 1 -16.5448 44.446 0
676 676 1 -12.8582 44.4935 0
677 677 1 -9.11091 44.6034 0
678 678 1 -5.44648 44.6453 0
679 679 1 -1.82402 44.706 0
680 680 1 1.91461 44.7455 0
681 681 1 5.5871 44.8604 0
682 682 1 9.31886 44.9019 0
683 683 1 13.0069 44.9606 0
684 684 1 16.7211 44.9704 0
685 685 1 20.4117 45.0883 0
686 686 1 24.1354 45.1091 0
687 687 1 27.879 45.2146 0
688 688 1 31.5818 45.284 0
689 689 1 35.2368 45.3673 0
690 690 1 38.9828 45.4058 0
691 691 1 42.6397 45.4606 0
692 692 1 46.3297 45.5983 0
693 693 1 50.001 45.6584 0
694 694 1 53.7353 45.8175 0
695 695 1 57.5094 45.8616 0
696 696 1 61.2426 45.8732 0
697 697 1 64.929 45.9189 0
698 698 1 68.6188 45.9666 0
699 699 1 72.3279 46.1731 0
700 700 1 76.0136 46.2081 0
701 701 1 79.8061 46.2775 0
702 702 1 83.4723 46.333 0
703 703 1 87.2195 46.3255 0
704 704 1 90.9387 46.4376 0
705 705 1 94.658 46.541 0
706 706 1 98.3214 46.6324 0
707 707 1 102.037 46.6679 0
708 708 1 105.673 46.7977 0
709 709 1 109.503 46.8867 0
710 710 1 113.188 46.883 0
711 711 1 116.93 46.9269 0
712 712 1 120.561 47.0389 0
713 713 1 124.254 47.1178 0
714 714 1 128.043 47.1062 0
715 715 1 131.712 47.206 0
716 716 1 135.442 47.2847 0
717 717 1 139.206 47.3443 0
718 718 1 142.841 47.4079 0
719 719 1 146.571 47.4747 0
720 720 1 150.318 47.4863 0
721 721 1 -25.8493 47.6351 0
722 722 1 -22.2207 47.6251 0
723 723 1 -18.5931 47.7177 0
724 724 1 -14.7438 47.802 0
725 725 1 -11.0812 47.8544 0
726 726 1 -7.34916 47.9065 0
727 727 1 -3.71547 47.9262 0
728 728 1 -0.0087995 47.9623 0
729 729 1 3.6876 48.0434 0
730 730 1 7.41569 48.1152 0
731 731 1 11.1267 48.1253 0
732 732 1 14.7539 48.1972 0
733 733 1 18.4836 48.2215 0
734 734 1 22.2151 48.2896 0
735 735 1 25.9825 48.3521 0
736 736 1 29.6913 48.4425 0
737 737 1 33.3074 48.4982 0
738 738 1 37.0033 48.5197 0
739 739 1 40.7195 48.6759 0
740 740 1 44.4808 48.7401 0
741 741 1 48.1495 48.8574 0
742 742 1 51.8086 48.9191 0
743 743 1 55.6038 48.9973 0
744 744 1 59.3357 49.0493 0
745 745 1 62.9494 49.159 0
746 746 1 66.5901 49.2419 0
747 747 1 70.3829 49.2883 0
748 748 1 74.0949 49.3521 0
749 749 1 77.807 49.3978 0
750 750 1 81.5682 49.4761 0
751 751 1 85.2464 49.5985 0
752 752 1 88.9732 49.6884 0
753 753 1 92.7415 49.6692 0
754 754 1 96.4244 49.8079 0
755 755 1 100.074 49.8432 0
756 756 1 103.768 49.9179 0
757 757 1 107.507 50.0053 0
758 758 1 111.181 50.128 0
759 759 1 114.946 50.1369 0
760 760 1 118.676 50.1816 0
761 761 1 122.357 50.2597 0
762 762 1 126.078 50.2687 0
763 763 1 129.776 50.3346 0
764 764 1 133.46 50.474 0
765 765 1 137.258 50.5591 0
766 766 1 140.958 50.5371 0
767 767 1 144.6 50.6428 0
768 768 1 148.349 50.6833 0
769 769 1 -27.8779 50.8146 0
770 770 1 -24.1451 50.8488 0
771 771 1 -20.5147 50.932 0
772 772 1 -16.7342 51.0071 0
773 773 1 -12.9955 51.1089 0
774 774 1 -9.35568 51.1476 0
775 775 1 -5.5831 51.1578 0
776 776 1 -1.93048 51.2075 0
777 777 1 1.84779 51.2143 0
778 778 1 5.53413 51.345 0
779 779 1 9.23671 51.3571 0
780 780 1 12.906 51.3725 0
781 781 1 16.6388 51.4233 0
782 782 1 20.2964 51.4534 0
783 783 1 24.0295 51.5839 0
784 784 1 27.7116 51.593 0
785 785 1 31.4171 51.5842 0
786 786 1 35.0996 51.7384 0
787 787 1 38.8056 51.7744 0
788 788 1 42.4871 51.8662 0
789 789 1 46.1811 52.0032 0
790 790 1 49.9462 52.0915 0
791 791 1 53.6284 52.1025 0
792 792 1 57.4035 52.2069 0
793 793 1 61.0726 52.3342 0
794 794 1 64.7765 52.3879 0
795 795 1 68.4992 52.4305 0
796 796 1 72.2414 52.5032 0
797 797 1 75.8438 52.6482 0
798 798 1 79.6072 52.6306 0
799 799 1 83.3385 52.7762 0
800 800 1 87.0174 52.8539 0
801 801 1 90.762 52.8081 0
802 802 1 94.4536 52.948 0
803 803 1 98.1544 52.9981 0
804 804 1 101.904 53.0113 0
805 805 1 105.611 53.198 0
806 806 1 109.289 53.2761 0
807 807 1 112.993 53.3123 0
808 808 1 116.757 53.3518 0
809 809 1 120.477 53.4207 0
810 810 1 124.124 53.4977 0
811 811 1 127.83 53.5065 0
812 812 1 131.522 53.6479 0
813 813 1 135.227 53.6379 0
814 814 1 139.02 53.7851 0
815 815 1 142.688 53.88 0
816 816 1 146.384 53.9119 0
817 817 1 -29.8053 53.931 0
818 818 1 -26.077 54.0048 0
819 819 1 -22.428 54.1206 0
820 820 1 -18.7487 54.1695 0
821 821 1 -14.9824 54.2879 0
822 822 1 -11.2454 54.359 0
823 823 1 -7.61084 54.4397 0
824 824 1 -3.88959 54.4462 0
825 825 1 -0.11477 54.3852 0
826 826 1 3.62701 54.5122 0
827 827 1 7.34712 54.5224 0
828 828 1 11.0521 54.5461 0
829 829 1 14.6957 54.5786 0
830 830 1 18.3858 54.6424 0
831 831 1 22.1251 54.7067 0
832 832 1 25.7855 54.7692 0
833 833 1 29.4959 54.8131 0
834 834 1 33.1464 54.8751 0
835 835 1 36.8585 54.9992 0
836 836 1 40.5932 55.0219 0
837 837 1 44.3339 55.1807 0
838 838 1 48.0214 55.205 0
839 839 1 51.7335 55.2384 0
840 840 1 55.5131 55.3544 0
841 841 1 59.1598 55.4622 0
842 842 1 62.8487 55.5349 0
843 843 1 66.5699 55.5718 0
844 844 1 70.2508 55.677 0
845 845 1 73.9992 55.7791 0
846 846 1 77.683 55.7973 0
847 847 1 81.3655 55.8988 0
848 848 1 85.0907 56.0094 0
849 849 1 88.7421 55.9984 0
850 850 1 92.4635 56.0984 0
851 851 1 96.2169 56.1682 0
852 852 1 99.8905 56.2703 0
853 853 1 103.634 56.3581 0
854 854 1 107.288 56.3923 0
855 855 1 111.054 56.4991 0
856 856 1 114.795 56.537 0
857 857 1 118.548 56.6219 0
858 858 1 122.249 56.7071 0
859 859 1 125.919 56.7396 0
860 860 1 129.613 56.743 0
861 861 1 133.276 56.8672 0
862 862 1 136.944 56.9282 0
863 863 1 140.743 56.9994 0
864 864 1 144.523 57.0672 0
865 865 1 -31.7222 57.0824 0
866 866 1 -28.0199 57.1815 0
867 867 1 -24.275 57.3034 0
868 868 1 -20.6159 57.3224 0
869 869 1 -16.8074 57.3733 0
870 870 1 -13.1631 57.4903 0
871 871 1 -9.5039 57.5861 0
872 872 1 -5.72671 57.6149 0
873 873 1 -1.97624 57.6438 0
874 874 1 1.70411 57.6375 0
875 875 1 5.42045 57.7797 0
876 876 1 9.15483 57.7477 0
877 877 1 12.7992 57.7891 0
878 878 1 16.4824 57.8169 0
879 879 1 20.2143 57.9482 0
880 880 1 23.8841 57.9796 0
881 881 1 27.5679 58.009 0
882 882 1 31.2043 58.0654 0
883 883 1 34.9233 58.1554 0
884 884 1 38.6208 58.2266 0
885 885 1 42.3671 58.3576 0
886 886 1 46.0809 58.4296 0
887 887 1 49.7544 58.4232 0
888 888 1 53.5654 58.4949 0
889 889 1 57.2247 58.6182 0
890 890 1 61.0016 58.757 0
891 891 1 64.6816 58.7905 0
892 892 1 68.3659 58.8328 0
893 893 1 72.0573 58.9174 0
894 894 1 75.73 58.9337 0
895 895 1 79.4101 59.0049 0
896 896 1 83.1314 59.2177 0
897 897 1 86.793 59.2812 0
898 898 1 90.5225 59.3071 0
899 899 1 94.2241 59.3761 0
900 900 1 97.8684 59.4344 0
901 901 1 101.602 59.5319 0
902 902 1 105.399 59.578 0
903 903 1 109.148 59.6773 0
904 904 1 112.861 59.6701 0
905 905 1 116.495 59.7715 0
906 906 1 120.277 59.8314 0
907 907 1 124.01 59.9011 0
908 908 1 127.657 59.9742 0
909 909 1 131.366 60.0982 0
910 910 1 135.028 60.0977 0
911 911 1 138.772 60.1139 0
912 912 1 142.518 60.2579 0
913 913 1 -33.6145 60.3307 0
914 914 1 -29.9652 60.3521 0
915 915 1 -26.247 60.4709 0
916 916 1 -22.4935 60.5217 0
917 917 1 -18.8138 60.6227 0
918 918 1 -15.0988 60.6616 0
919 919 1 -11.388 60.7695 0
920 920 1 -7.69295 60.7937 0
921 921 1 -4.0133 60.8588 0
922 922 1 -0.211394 60.9072 0
923 923 1 3.51727 60.8993 0
924 924 1 7.28449 60.9533 0
925 925 1 10.92 60.993 0
926 926 1 14.5395 61.1148 0
927 927 1 18.23 61.0792 0
928 928 1 21.9763 61.2077 0
929 929 1 25.6914 61.175 0
930 930 1 29.3541 61.2413 0
931 931 1 33.0052 61.2456 0
932 932 1 36.7111 61.3878 0
933 933 1 40.4732 61.5048 0
934 934 1 44.1464 61.604 0
935 935 1 47.8261 61.6071 0
936 936 1 51.5483 61.6311 0
937 937 1 55.3098 61.7206 0
938 938 1 59.0139 61.8709 0
939 939 1 62.706 62.0119 0
940 940 1 66.3597 62.0051 0
941 941 1 70.1034 62.0554 0
942 942 1 73.7626 62.1193 0
943 943 1 77.478 62.1844 0
944 944 1 81.1768 62.337 0
945 945 1 84.8966 62.4013 0
946 946 1 88.5604 62.4688 0
947 947 1 92.2976 62.6095 0
948 948 1 95.982 62.7437 0
949 949 1 99.6411 62.7478 0
950 950 1 103.374 62.8036 0
951 951 1 107.205 62.804 0
952 952 1 110.987 62.9235 0
953 953 1 114.612 62.9229 0
954 954 1 118.307 62.9894 0
955 955 1 122.002 63.0731 0
956 956 1 125.762 63.0781 0
957 957 1 129.443 63.2251 0
958 958 1 133.139 63.2969 0
959 959 1 136.819 63.3247 0
960 960 1 140.58 63.382 0
961 961 1 -35.6053 63.4805 0
962 962 1 -31.8946 63.542 0
963 963 1 -28.169 63.6542 0
964 964 1 -24.4355 63.7271 0
965 965 1 -20.7219 63.7894 0
966 966 1 -16.9859 63.8752 0
967 967 1 -13.3669 63.9026 0
968 968 1 -9.66895 63.9695 0
969 969 1 -5.94768 64.023 0
970 970 1 -2.2283 64.0581 0
971 971 1 1.55301 64.0911 0
972 972 1 5.23978 64.1672 0
973 973 1 8.98491 64.2074 0
974 974 1 12.6362 64.2584 0
975 975 1 16.3249 64.2678 0
976 976 1 20.055 64.3001 0
977 977 1 23.7855 64.4483 0
978 978 1 27.4552 64.455 0
979 979 1 31.1218 64.5754 0
980 980 1 34.8188 64.504 0
981 981 1 38.4898 64.6171 0
982 982 1 42.1766 64.6893 0
983 983 1 45.92 64.8165 0
984 984 1 49.5738 64.8282 0
985 985 1 53.3268 64.9013 0
986 986 1 57.0541 65.0228 0
987 987 1 60.7494 65.1328 0
988 988 1 64.4896 65.2294 0
989 989 1 68.1687 65.2266 0
990 990 1 71.8436 65.2678 0
991 991 1 75.499 65.3516 0
992 992 1 79.271 65.4977 0
993 993 1 82.957 65.5461 0
994 994 1 86.6238 65.5661 0
995 995 1 90.291 65.6527 0
996 996 1 93.9885 65.8713 0
997 997 1 97.752 65.9083 0
998 998 1 101.507 66.0286 0
999 999 1 105.144 66.0887 0
1000 1000 1 108.907 66.1752 0
1001 1001 1 112.664 66.1862 0
1002 1002 1 116.319 66.1729 0
1003 1003 1 120.008 66.2569 0
1004 1004 1 123.705 66.3603 0
1005 1005 1 127.455 66.3619 0
1006 1006 1 131.221 66.4611 0
1007 1007 1 134.889 66.5115 0
1008 1008 1 138.566 66.5697 0
1009 1009 1 -37.5872 66.6862 0
1010 1010 1 -33.9102 66.8087 0
1011 1011 1 -30.1638 66.8531 0
1012 1012 1 -26.4272 66.908 0
1013 1013 1 -22.6654 66.9563 0
1014 1014 1 -18.9576 67.0309 0
1015 1015 1 -15.2335 67.1353 0
1016 1016 1 -11.5243 67.1526 0
1017 1017 1 -7.84566 67.2007 0
1018 1018 1 -4.1125 67.2048 0
1019 1019 1 -0.368038 67.2656 0
1020 1020 1 3.32273 67.3184 0
1021 1021 1 7.04819 67.3937 0
1022 1022 1 10.7473 67.3847 0
1023 1023 1 14.4434 67.4427 0
1024 1024 1 18.0659 67.5036 0
1025 1025 1 21.824 67.6012 0
1026 1026 1 25.5125 67.703 0
1027 1027 1 29.1589 67.735 0
1028 1028 1 32.9006 67.7251 0
1029 1029 1 36.6061 67.8058 0
1030 1030 1 40.3052 67.8705 0
1031 1031 1 43.9553 67.9686 0
1032 1032 1 47.6704 68.0064 0
1033 1033 1 51.4267 68.1076 0
1034 1034 1 55.0825 68.1483 0
1035 1035 1 58.7673 68.2488 0
1036 1036 1 62.476 68.4048 0