ITEM: TIMESTEP
0
ITEM: NUMBER OF ATOMS
14976
ITEM: BOX BOUNDS xy xz yz pp pp pp
-9.5477513482483474e+01 1.7752010092298983e+02 -9.3107412559496922e+01
-4.7483555541750384e-03 1.6548474835555075e+02 0.0000000000000000e+00
-2.0000000000000001e-01 2.0000000000000001e-01 0.0000000000000000e+00
ITEM: ATOMS id mol type x y z ix iy 
1 1 1 2.77182 1.3352 0 0 0 
2 1 1 4.20551 0.914709 0 0 0 
1748 292 1 3.61508 20.1235 0 0 0 
1435 240 1 -10.6687 17.145 0 1 0 
896 150 1 16.8808 10.7653 0 0 0 
1193 199 1 16.4647 11.9292 0 0 0 
7 2 1 6.46722 1.38123 0 0 0 
8 2 1 7.89846 0.95965 0 0 0 
608 102 1 18.888 7.55297 0 0 0 
285 48 1 -1.09202 2.6023 0 1 0 
573 96 1 -3.12542 5.65161 0 1 0 
1769 295 1 12.4973 18.345 0 0 0 
13 3 1 10.22 1.40971 0 0 0 
14 3 1 11.6512 0.958002 0 0 0 
288 48 1 -3.97775 3.40289 0 1 0 
1726 288 1 -11.8655 17.3734 0 1 0 
1437 240 1 -8.90996 15.2422 0 1 0 
18 3 1 9.12496 0.409688 0 0 0 
19 4 1 13.8326 1.45119 0 0 0 
20 4 1 15.2648 1.05271 0 0 0 
1724 288 1 -11.0554 19.8335 0 1 0 
1749 292 1 3.96568 18.6574 0 0 0 
1736 290 1 -3.73965 19.918 0 0 0 
24 4 1 12.7432 0.415669 0 0 0 
25 5 1 17.5159 1.53541 0 0 0 
26 5 1 18.9578 1.10508 0 0 0 
1760 294 1 11.0268 20.2756 0 0 0 
861 144 1 -4.96226 8.8129 0 1 0 
1746 291 1 -2.5913 19.3637 0 0 0 
30 5 1 16.4279 0.525079 0 0 0 
31 6 1 21.2387 1.6177 0 0 0 
286 48 1 -2.15728 1.54038 0 1 0 
1737 290 1 -3.38999 18.4526 0 0 0 
1149 192 1 -6.905 12.025 0 1 0 
1730 289 1 -7.30299 19.8147 0 0 0 
36 6 1 20.143 0.596342 0 0 0 
1761 294 1 11.3679 18.8159 0 0 0 
1756 293 1 6.66797 17.6829 0 0 0 
1750 292 1 2.86618 17.6454 0 0 0 
284 48 1 -1.46582 4.0346 0 1 0 
574 96 1 -4.26329 4.63226 0 1 0 
289 49 1 0.822773 4.49235 0 0 0 
290 49 1 2.23195 4.04319 0 0 0 
291 49 1 2.54796 2.57312 0 0 0 
292 49 1 1.43437 1.57539 0 0 0 
293 49 1 0.0297251 2.02811 0 0 0 
294 49 1 -0.28513 3.47727 0 0 0 
295 50 1 4.4696 4.58229 0 0 0 
296 50 1 5.90221 4.15073 0 0 0 
297 50 1 6.23367 2.69654 0 0 0 
298 50 1 5.146 1.65776 0 0 0 
299 50 1 3.69061 2.11388 0 0 0 
300 50 1 3.3578 3.57209 0 0 0 
301 51 1 8.30432 4.55546 0 0 0 
302 51 1 9.74204 4.08908 0 0 0 
303 51 1 10.0311 2.61448 0 0 0 
304 51 1 8.90427 1.61435 0 0 0 
305 51 1 7.47863 2.10351 0 0 0 
306 51 1 7.20594 3.55635 0 0 0 
307 52 1 12.021 4.61108 0 0 0 
308 52 1 13.4573 4.13315 0 0 0 
309 52 1 13.7642 2.6718 0 0 0 
310 52 1 12.6497 1.68499 0 0 0 
311 52 1 11.2253 2.14927 0 0 0 
312 52 1 10.9199 3.60318 0 0 0 
313 53 1 15.7102 4.68722 0 0 0 
314 53 1 17.1308 4.18408 0 0 0 
315 53 1 17.3984 2.70725 0 0 0 
316 53 1 16.253 1.72881 0 0 0 
317 53 1 14.8428 2.24034 0 0 0 
318 53 1 14.5706 3.71384 0 0 0 
319 54 1 19.3216 4.78875 0 0 0 
1731 289 1 -7.0843 18.333 0 0 0 
321 54 1 21.1148 2.92181 0 0 0 
322 54 1 20.0299 1.8925 0 0 0 
323 54 1 18.6083 2.30756 0 0 0 
324 54 1 18.2544 3.75695 0 0 0 
1734 289 1 -9.89734 19.3793 0 0 0 
1723 288 1 -12.4631 20.3103 0 1 0 
862 144 1 -6.05821 7.77314 0 1 0 
572 96 1 -3.44983 7.10454 0 1 0 
577 97 1 -1.08928 7.69166 0 0 0 
578 97 1 0.334368 7.21183 0 0 0 
579 97 1 0.624733 5.73577 0 0 0 
580 97 1 -0.505235 4.75292 0 0 0 
581 97 1 -1.94239 5.23415 0 0 0 
582 97 1 -2.23016 6.70928 0 0 0 
583 98 1 2.58571 7.73736 0 0 0 
584 98 1 4.02434 7.28121 0 0 0 
585 98 1 4.36373 5.8156 0 0 0 
586 98 1 3.26339 4.78127 0 0 0 
587 98 1 1.82108 5.22854 0 0 0 
588 98 1 1.46907 6.70393 0 0 0 
589 99 1 6.42569 7.77584 0 0 0 
590 99 1 7.83737 7.28496 0 0 0 
591 99 1 8.13155 5.81401 0 0 0 
592 99 1 7.0128 4.82567 0 0 0 
593 99 1 5.59097 5.29634 0 0 0 
594 99 1 5.29282 6.77025 0 0 0 
595 100 1 10.1152 7.76409 0 0 0 
596 100 1 11.5326 7.27135 0 0 0 
597 100 1 11.8077 5.80187 0 0 0 
598 100 1 10.6727 4.82165 0 0 0 
599 100 1 9.25823 5.30845 0 0 0 
600 100 1 8.97212 6.80007 0 0 0 
601 101 1 13.8241 7.84571 0 0 0 
602 101 1 15.2635 7.42148 0 0 0 
603 101 1 15.5952 5.97199 0 0 0 
604 101 1 14.5158 4.93083 0 0 0 
605 101 1 13.0789 5.33059 0 0 0 
606 101 1 12.7197 6.7942 0 0 0 
607 102 1 17.4454 7.96647 0 0 0 
1762 294 1 10.2587 17.7965 0 0 0 
609 102 1 19.2452 6.09619 0 0 0 
610 102 1 18.1528 5.05364 0 0 0 
611 102 1 16.7048 5.47844 0 0 0 
612 102 1 16.3646 6.93483 0 0 0 
1754 293 1 7.36362 20.1994 0 0 0 
1481 247 1 14.486 15.071 0 0 0 
1758 293 1 4.85045 19.5526 0 0 0 
860 144 1 -5.30342 10.2541 0 1 0 
865 145 1 -3.00354 10.8306 0 0 0 
866 145 1 -1.60167 10.3462 0 0 0 
867 145 1 -1.32443 8.86376 0 0 0 
868 145 1 -2.45492 7.88781 0 0 0 
869 145 1 -3.87639 8.39148 0 0 0 
870 145 1 -4.15653 9.84553 0 0 0 
871 146 1 0.653544 10.8809 0 0 0 
872 146 1 2.09119 10.464 0 0 0 
873 146 1 2.45767 8.99502 0 0 0 
874 146 1 1.36356 7.97407 0 0 0 
875 146 1 -0.0920281 8.38999 0 0 0 
876 146 1 -0.44444 9.8413 0 0 0 
877 147 1 4.33425 10.8971 0 0 0 
878 147 1 5.75197 10.4611 0 0 0 
879 147 1 6.10776 8.99164 0 0 0 
880 147 1 5.02023 7.96571 0 0 0 
881 147 1 3.59023 8.42161 0 0 0 
882 147 1 3.24352 9.8817 0 0 0 
883 148 1 8.1141 10.9344 0 0 0 
884 148 1 9.55131 10.5178 0 0 0 
885 148 1 9.91333 9.0942 0 0 0 
886 148 1 8.84832 8.04131 0 0 0 
887 148 1 7.38723 8.43912 0 0 0 
888 148 1 7.03797 9.89231 0 0 0 
889 149 1 11.8032 10.9565 0 0 0 
890 149 1 13.2255 10.5197 0 0 0 
891 149 1 13.5608 9.05157 0 0 0 
892 149 1 12.4491 8.02738 0 0 0 
893 149 1 11.0437 8.47062 0 0 0 
894 149 1 10.704 9.93065 0 0 0 
895 150 1 15.4318 11.1414 0 0 0 
1147 192 1 -8.70142 13.8722 0 1 0 
897 150 1 17.2955 9.33081 0 0 0 
898 150 1 16.2401 8.25255 0 0 0 
899 150 1 14.7822 8.62274 0 0 0 
900 150 1 14.378 10.0618 0 0 0 
1148 192 1 -7.27352 13.4671 0 1 0 
1752 292 1 1.08497 19.5409 0 0 0 
571 96 1 -4.86294 7.5311 0 1 0 
1436 240 1 -9.22625 16.7041 0 1 0 
1153 193 1 -4.96731 13.9553 0 0 0 
1154 193 1 -3.51952 13.5554 0 0 0 
1155 193 1 -3.1471 12.1007 0 0 0 
1156 193 1 -4.22381 11.0604 0 0 0 
1157 193 1 -5.66527 11.4716 0 0 0 
1158 193 1 -6.0299 12.9268 0 0 0 
1159 194 1 -1.25278 14.0152 0 0 0 
1160 194 1 0.174128 13.5391 0 0 0 
1161 194 1 0.475893 12.0709 0 0 0 
1162 194 1 -0.641887 11.0841 0 0 0 
1163 194 1 -2.08157 11.5514 0 0 0 
1164 194 1 -2.38651 13.0212 0 0 0 
1165 195 1 2.41122 14.1034 0 0 0 
1166 195 1 3.84791 13.6717 0 0 0 
1167 195 1 4.20541 12.2226 0 0 0 
1168 195 1 3.08886 11.1979 0 0 0 
1169 195 1 1.64981 11.6369 0 0 0 
1170 195 1 1.31581 13.0896 0 0 0 
1171 196 1 6.07343 14.1902 0 0 0 
1172 196 1 7.52545 13.7535 0 0 0 
1173 196 1 7.87832 12.3011 0 0 0 
1174 196 1 6.78432 11.2683 0 0 0 
1175 196 1 5.33233 11.6931 0 0 0 
1176 196 1 4.97713 13.1504 0 0 0 
1177 197 1 9.76332 14.1905 0 0 0 
1178 197 1 11.1922 13.7711 0 0 0 
1179 197 1 11.5593 12.3184 0 0 0 
1180 197 1 10.4964 11.2757 0 0 0 
1181 197 1 9.05277 11.7133 0 0 0 
1182 197 1 8.69358 13.1555 0 0 0 
1183 198 1 13.4865 14.2989 0 0 0 
1184 198 1 14.916 13.8349 0 0 0 
1185 198 1 15.222 12.3604 0 0 0 
1186 198 1 14.1023 11.3591 0 0 0 
1187 198 1 12.6837 11.8208 0 0 0 
1188 198 1 12.3678 13.3008 0 0 0 
1735 290 1 -5.16122 20.3396 0 0 0 
1743 291 1 0.306468 18.5536 0 0 0 
859 144 1 -6.7301 10.6749 0 1 0 
1755 293 1 7.72431 18.7408 0 0 0 
1441 241 1 -6.8898 17.1487 0 0 0 
1442 241 1 -5.45553 16.6491 0 0 0 
1443 241 1 -5.18085 15.1779 0 0 0 
1444 241 1 -6.31686 14.1965 0 0 0 
1445 241 1 -7.74916 14.6943 0 0 0 
1446 241 1 -8.0351 16.1485 0 0 0 
1447 242 1 -3.22367 17.1924 0 0 0 
1448 242 1 -1.79334 16.7614 0 0 0 
1449 242 1 -1.44788 15.2913 0 0 0 
1450 242 1 -2.52602 14.2735 0 0 0 
1451 242 1 -3.97185 14.7095 0 0 0 
1452 242 1 -4.32618 16.1636 0 0 0 
1453 243 1 0.401733 17.2712 0 0 0 
1454 243 1 1.86034 16.8953 0 0 0 
1455 243 1 2.24076 15.456 0 0 0 
1456 243 1 1.17158 14.3965 0 0 0 
1457 243 1 -0.25757 14.7733 0 0 0 
1458 243 1 -0.645331 16.2317 0 0 0 
1459 244 1 4.28212 17.4248 0 0 0 
1460 244 1 5.68218 16.8753 0 0 0 
1461 244 1 5.91521 15.4067 0 0 0 
1462 244 1 4.75893 14.4573 0 0 0 
1463 244 1 3.34417 14.978 0 0 0 
1464 244 1 3.11846 16.4707 0 0 0 
1465 245 1 7.94563 17.393 0 0 0 
1466 245 1 9.35082 16.9114 0 0 0 
1467 245 1 9.63813 15.445 0 0 0 
1468 245 1 8.51232 14.4676 0 0 0 
1469 245 1 7.07781 14.9502 0 0 0 
1470 245 1 6.80901 16.4112 0 0 0 
1471 246 1 11.6235 17.4854 0 0 0 
1472 246 1 13.0318 17.0108 0 0 0 
1473 246 1 13.3419 15.5572 0 0 0 
1474 246 1 12.2139 14.5783 0 0 0 
1475 246 1 10.8059 15.033 0 0 0 
1476 246 1 10.4923 16.5076 0 0 0 
1732 289 1 -8.25589 17.3826 0 0 0 
1738 290 1 -4.47223 17.4104 0 0 0 
283 48 1 -2.90706 4.4513 0 1 0 
1764 294 1 8.49037 19.6946 0 0 0 
12 2 1 5.3717 0.362834 0 0 0 
1740 290 1 -6.25411 19.2983 0 0 0 
1744 291 1 -0.777672 17.5169 0 0 0 
1742 291 1 -0.0628715 19.9959 0 0 0 
1733 289 1 -9.65681 17.9258 0 0 0 
6 1 1 1.68687 0.321997 0 0 0 
1438 240 1 -9.99492 14.2198 0 1 0 
1729 289 1 -8.69701 20.3423 0 0 0 
1739 290 1 -5.89835 17.8394 0 0 0 
1745 291 1 -2.20999 17.9002 0 0 0 
1751 292 1 1.43256 18.0802 0 0 0 
1763 294 1 8.83395 18.2524 0 0 0 
1757 293 1 5.22097 18.0897 0 0 0 
1725 288 1 -10.7491 18.3716 0 1 0 
1150 192 1 -7.95145 10.977 0 1 0 
576 96 1 -5.98782 6.53617 0 1 0 
2020 337 1 -10.0964 20.6155 0 0 0 
1741 291 1 -1.50426 20.4081 0 0 0 
2014 336 1 -13.7296 20.5284 0 1 0 
1747 292 1 2.18227 20.5586 0 0 0 
320 54 1 20.7587 4.38188 0 0 0 
1753 293 1 5.93366 20.6061 0 0 0 
2032 339 1 -2.7072 20.6421 0 0 0 
1770 295 1 12.1843 19.7948 0 0 0 
905 151 1 18.3872 8.71876 0 0 0 
3481 581 1 -5.58961 39.6596 0 0 0 
2589 432 1 -16.5304 27.898 0 1 0 
3767 628 1 -11.8629 40.2492 0 0 0 
3163 528 1 -22.1443 36.157 0 1 0 
1759 294 1 9.59768 20.7093 0 0 0 
3747 625 1 -20.6472 40.7026 0 0 0 
3755 626 1 -19.3281 40.2129 0 0 0 
2877 480 1 -18.4603 31.057 0 1 0 
3765 628 1 -9.38054 40.9789 0 0 0 
3452 576 1 -22.7002 38.8273 0 1 0 
2301 384 1 -14.6509 24.6855 0 1 0 
2299 384 1 -16.4239 26.5743 0 1 0 
2017 337 1 -10.6702 23.5574 0 0 0 
2018 337 1 -9.24523 23.0695 0 0 0 
2019 337 1 -8.95467 21.6007 0 0 0 
3779 630 1 -4.59772 40.5069 0 0 0 
2021 337 1 -11.4966 21.0993 0 0 0 
2022 337 1 -11.7958 22.5757 0 0 0 
2023 338 1 -7.00033 23.6099 0 0 0 
2024 338 1 -5.57014 23.1583 0 0 0 
2025 338 1 -5.26814 21.6889 0 0 0 
3451 576 1 -24.1216 39.3205 0 1 0 
2027 338 1 -7.80782 21.1461 0 0 0 
2028 338 1 -8.12896 22.6247 0 0 0 
2029 339 1 -3.31291 23.5873 0 0 0 
2030 339 1 -1.88352 23.1038 0 0 0 
2031 339 1 -1.57284 21.6407 0 0 0 
3210 535 1 2.66958 35.721 0 0 0 
2033 339 1 -4.14215 21.1287 0 0 0 
2034 339 1 -4.44254 22.5994 0 0 0 
3204 534 1 -1.03402 35.5422 0 0 0 
2039 340 1 -0.418933 21.1876 0 0 0 
2040 340 1 -0.765232 22.6493 0 0 0 
2012 336 1 -12.9869 23.0214 0 1 0 
2875 480 1 -20.2039 32.9745 0 1 0 
2305 385 1 -12.7807 26.6285 0 0 0 
2306 385 1 -11.319 26.2545 0 0 0 
2307 385 1 -10.9268 24.837 0 0 0 
2308 385 1 -11.9783 23.7537 0 0 0 
2309 385 1 -13.4293 24.1141 0 0 0 
2310 385 1 -13.8356 25.5726 0 0 0 
2311 386 1 -8.96801 26.7827 0 0 0 
2312 386 1 -7.5365 26.3404 0 0 0 
2313 386 1 -7.20964 24.8805 0 0 0 
2314 386 1 -8.31896 23.8766 0 0 0 
2315 386 1 -9.74852 24.2981 0 0 0 
2316 386 1 -10.0727 25.7497 0 0 0 
2317 387 1 -5.19423 26.7781 0 0 0 
2318 387 1 -3.76531 26.294 0 0 0 
2319 387 1 -3.44231 24.8407 0 0 0 
2320 387 1 -4.55151 23.8542 0 0 0 
2321 387 1 -5.9823 24.3106 0 0 0 
2322 387 1 -6.30082 25.7847 0 0 0 
2326 388 1 -0.871313 23.9569 0 0 0 
2327 388 1 -2.30762 24.4123 0 0 0 
2328 388 1 -2.60051 25.8775 0 0 0 
2876 480 1 -18.7867 32.5265 0 1 0 
2593 433 1 -14.659 29.8536 0 0 0 
2594 433 1 -13.2081 29.4266 0 0 0 
2595 433 1 -12.827 27.974 0 0 0 
2596 433 1 -13.9047 26.9576 0 0 0 
2597 433 1 -15.3508 27.3711 0 0 0 
2598 433 1 -15.7229 28.8165 0 0 0 
2599 434 1 -10.8932 29.9538 0 0 0 
2600 434 1 -9.43833 29.5267 0 0 0 
2601 434 1 -9.07359 28.0791 0 0 0 
2602 434 1 -10.1611 27.0211 0 0 0 
2603 434 1 -11.608 27.4489 0 0 0 
2604 434 1 -11.9515 28.9178 0 0 0 
2605 435 1 -7.18399 29.9623 0 0 0 
2606 435 1 -5.76239 29.5559 0 0 0 
2607 435 1 -5.37142 28.1109 0 0 0 
2608 435 1 -6.4456 27.0599 0 0 0 
2609 435 1 -7.90251 27.4693 0 0 0 
2610 435 1 -8.2788 28.9344 0 0 0 
2611 436 1 -3.42663 30.0079 0 0 0 
2614 436 1 -2.77047 27.0725 0 0 0 
2615 436 1 -4.20362 27.5155 0 0 0 
2616 436 1 -4.53251 28.984 0 0 0 
2300 384 1 -14.9902 26.1494 0 1 0 
2881 481 1 -16.5171 33.0183 0 0 0 
2882 481 1 -15.0998 32.573 0 0 0 
2883 481 1 -14.7811 31.0892 0 0 0 
2884 481 1 -15.8905 30.0878 0 0 0 
2885 481 1 -17.321 30.5468 0 0 0 
2886 481 1 -17.6334 32.0142 0 0 0 
2887 482 1 -12.7545 33.1771 0 0 0 
2888 482 1 -11.3059 32.7028 0 0 0 
2889 482 1 -10.9899 31.252 0 0 0 
2890 482 1 -12.104 30.2421 0 0 0 
2891 482 1 -13.5317 30.7018 0 0 0 
2892 482 1 -13.8718 32.1679 0 0 0 
2893 483 1 -8.96296 33.2023 0 0 0 
2894 483 1 -7.54898 32.7044 0 0 0 
2895 483 1 -7.2853 31.2074 0 0 0 
2896 483 1 -8.43471 30.2544 0 0 0 
2897 483 1 -9.84015 30.7625 0 0 0 
2898 483 1 -10.0997 32.2344 0 0 0 
2899 484 1 -5.4013 33.1427 0 0 0 
2902 484 1 -4.64429 30.2428 0 0 0 
2903 484 1 -6.08709 30.6407 0 0 0 
2904 484 1 -6.46219 32.084 0 0 0 
3209 535 1 3.01968 34.2578 0 0 0 
3169 529 1 -18.3823 36.2743 0 0 0 
3170 529 1 -16.9563 35.7944 0 0 0 
3171 529 1 -16.6715 34.3249 0 0 0 
3172 529 1 -17.7897 33.3223 0 0 0 
3173 529 1 -19.2231 33.8032 0 0 0 
3174 529 1 -19.4984 35.2827 0 0 0 
3175 530 1 -14.6835 36.3644 0 0 0 
3176 530 1 -13.2657 35.856 0 0 0 
3177 530 1 -12.992 34.3701 0 0 0 
3178 530 1 -14.1436 33.4019 0 0 0 
3179 530 1 -15.565 33.9049 0 0 0 
3180 530 1 -15.8418 35.3871 0 0 0 
3181 531 1 -10.9808 36.343 0 0 0 
3182 531 1 -9.54489 35.8878 0 0 0 
3183 531 1 -9.18077 34.4407 0 0 0 
3184 531 1 -10.282 33.4234 0 0 0 
3185 531 1 -11.7219 33.8482 0 0 0 
3186 531 1 -12.0683 35.3172 0 0 0 
3187 532 1 -7.27823 36.4355 0 0 0 
3190 532 1 -6.59953 33.512 0 0 0 
3191 532 1 -8.02534 33.9499 0 0 0 
3192 532 1 -8.36365 35.4097 0 0 0 
3491 582 1 -2.62838 37.2754 0 0 0 
3778 630 1 -3.16818 40.0179 0 0 0 
3459 577 1 -18.6415 37.5221 0 0 0 
3460 577 1 -19.7299 36.4972 0 0 0 
3461 577 1 -21.1698 36.9224 0 0 0 
3462 577 1 -21.5356 38.3807 0 0 0 
2588 432 1 -16.8862 29.3592 0 1 0 
3761 627 1 -15.6751 40.2928 0 0 0 
3465 578 1 -14.9017 37.7056 0 0 0 
3466 578 1 -15.9589 36.6323 0 0 0 
3467 578 1 -17.3929 37.023 0 0 0 
3468 578 1 -17.7881 38.4523 0 0 0 
3471 579 1 -11.2123 37.6761 0 0 0 
3472 579 1 -12.3403 36.6871 0 0 0 
3473 579 1 -13.756 37.1712 0 0 0 
3474 579 1 -14.0499 38.6436 0 0 0 
3478 580 1 -8.57003 36.6787 0 0 0 
3479 580 1 -9.9891 37.1139 0 0 0 
3480 580 1 -10.3236 38.5691 0 0 0 
3464 578 1 -15.293 39.1519 0 0 0 
2587 432 1 -18.3317 29.7805 0 1 0 
3458 577 1 -18.9891 38.9791 0 0 0 
3773 629 1 -8.2987 40.5114 0 0 0 
3164 528 1 -20.7053 35.7316 0 1 0 
3165 528 1 -20.3549 34.2688 0 1 0 
3741 624 1 -24.329 40.5425 0 1 0 
2013 336 1 -12.6346 21.5619 0 1 0 
3453 576 1 -22.4088 37.3416 0 1 0 
3759 627 1 -13.1117 40.8058 0 0 0 
3476 580 1 -7.78884 39.1578 0 0 0 
3766 628 1 -10.4063 39.9018 0 0 0 
3748 625 1 -21.753 39.6952 0 0 0 
3749 625 1 -23.1827 40.1373 0 0 0 
3777 630 1 -2.03636 41.0257 0 0 0 
2035 340 1 0.288816 23.6978 0 0 0 
2036 340 1 1.72646 23.2675 0 0 0 
2037 340 1 2.12156 21.8132 0 0 0 
2045 341 1 3.19846 21.3713 0 0 0 
2323 388 1 -1.4936 26.8799 0 0 0 
2324 388 1 -0.0632016 26.4185 0 0 0 
2325 388 1 0.235984 24.9463 0 0 0 
2333 389 1 1.40417 24.5099 0 0 0 
2612 436 1 -1.99515 29.5545 0 0 0 
2613 436 1 -1.68115 28.0923 0 0 0 
2621 437 1 -0.496061 27.6291 0 0 0 
2622 437 1 -0.869182 29.0763 0 0 0 
2900 484 1 -3.94929 32.7434 0 0 0 
2901 484 1 -3.57091 31.2914 0 0 0 
2909 485 1 -2.38465 30.8023 0 0 0 
2910 485 1 -2.77917 32.2563 0 0 0 
3188 532 1 -5.8453 35.9952 0 0 0 
3189 532 1 -5.50489 34.5305 0 0 0 
3197 533 1 -4.27094 33.9567 0 0 0 
3198 533 1 -4.65448 35.4107 0 0 0 
3486 581 1 -6.65112 38.6282 0 0 0 
3463 578 1 -16.7253 39.5358 0 0 0 
3477 580 1 -7.4641 37.7014 0 0 0 
3485 581 1 -6.29366 37.1796 0 0 0 
3475 580 1 -9.22996 39.5931 0 0 0 
3457 577 1 -20.4261 39.4082 0 0 0 
3469 579 1 -12.9215 39.6178 0 0 0 
2011 336 1 -14.4391 23.4573 0 1 0 
3753 626 1 -16.8024 40.8314 0 0 0 
3470 579 1 -11.5058 39.1304 0 0 0 
3760 627 1 -14.2507 39.8153 0 0 0 
3754 626 1 -17.8916 39.7818 0 0 0 
2634 439 1 6.53838 29.292 0 0 0 
3496 583 1 2.47435 36.9858 0 0 0 
3785 631 1 -0.819377 40.5046 0 0 0 
2346 391 1 8.49518 26.1189 0 0 0 
3772 629 1 -6.89452 39.9886 0 0 0 
3202 534 1 0.750061 33.6308 0 0 0 
3482 581 1 -4.14826 39.2541 0 0 0 
3483 581 1 -3.77752 37.8062 0 0 0 
3484 581 1 -4.84398 36.7571 0 0 0 
3771 629 1 -5.73917 40.9565 0 0 0 
3487 582 1 -1.87651 39.7438 0 0 0 
2041 341 1 4.04551 23.8231 0 0 0 
2042 341 1 5.48169 23.3345 0 0 0 
2043 341 1 5.76364 21.8697 0 0 0 
3203 534 1 -0.689783 34.0939 0 0 0 
2046 341 1 2.92626 22.8305 0 0 0 
2047 342 1 7.78084 23.9004 0 0 0 
2048 342 1 9.18355 23.3798 0 0 0 
2049 342 1 9.45568 21.9084 0 0 0 
2050 342 1 8.30299 20.9395 0 0 0 
2051 342 1 6.88518 21.4362 0 0 0 
2052 342 1 6.62023 22.9281 0 0 0 
2057 343 1 10.6205 21.4662 0 0 0 
3489 582 1 -0.0865983 37.8482 0 0 0 
2329 389 1 2.18795 26.9555 0 0 0 
2330 389 1 3.59857 26.5314 0 0 0 
2331 389 1 3.95445 25.0604 0 0 0 
2332 389 1 2.8467 24.0482 0 0 0 
2334 389 1 1.09607 25.9509 0 0 0 
2335 390 1 5.80402 27.1195 0 0 0 
2336 390 1 7.27674 26.7244 0 0 0 
2337 390 1 7.64738 25.2799 0 0 0 
2338 390 1 6.58212 24.2245 0 0 0 
2339 390 1 5.13948 24.619 0 0 0 
2340 390 1 4.74974 26.0686 0 0 0 
2345 391 1 8.8007 24.6418 0 0 0 
3784 631 1 0.621485 40.1366 0 0 0 
3490 582 1 -1.18821 36.8322 0 0 0 
2617 437 1 0.203583 30.13 0 0 0 
2618 437 1 1.65489 29.7047 0 0 0 
2619 437 1 2.02282 28.2539 0 0 0 
2620 437 1 0.941573 27.207 0 0 0 
2623 438 1 3.97475 30.2382 0 0 0 
2624 438 1 5.4051 29.7719 0 0 0 
2625 438 1 5.7299 28.2983 0 0 0 
2626 438 1 4.6158 27.2852 0 0 0 
2627 438 1 3.1801 27.7389 0 0 0 
2628 438 1 2.85622 29.2239 0 0 0 
2633 439 1 6.89482 27.8587 0 0 0 
2922 487 1 4.63103 32.5315 0 0 0 
3492 582 1 -2.9697 38.7148 0 0 0 
2905 485 1 -1.71935 33.3001 0 0 0 
2906 485 1 -0.267364 32.9189 0 0 0 
2907 485 1 0.123568 31.4603 0 0 0 
2908 485 1 -0.930593 30.4115 0 0 0 
2911 486 1 1.99993 33.4354 0 0 0 
2912 486 1 3.44525 32.9967 0 0 0 
2913 486 1 3.78531 31.5329 0 0 0 
2914 486 1 2.70544 30.5046 0 0 0 
2915 486 1 1.27703 30.9438 0 0 0 
2916 486 1 0.917425 32.4138 0 0 0 
3497 583 1 1.02084 37.3971 0 0 0 
3488 582 1 -0.437959 39.3033 0 0 0 
2921 487 1 4.97522 31.0585 0 0 0 
3498 583 1 0.680861 38.8324 0 0 0 
3193 533 1 -3.58692 36.4427 0 0 0 
3194 533 1 -2.15048 36.0606 0 0 0 
3195 533 1 -1.78097 34.6048 0 0 0 
3196 533 1 -2.83749 33.5483 0 0 0 
3199 534 1 0.0511266 36.5642 0 0 0 
3200 534 1 1.49356 36.14 0 0 0 
3201 534 1 1.85729 34.6674 0 0 0 
2044 341 1 4.62243 20.8931 0 0 0 
2038 340 1 1.04249 20.7598 0 0 0 
2058 343 1 10.2556 22.8947 0 0 0 
2026 338 1 -6.37615 20.6991 0 0 0 
3745 625 1 -22.4114 42.619 0 0 0 
3746 625 1 -20.9633 42.1626 0 0 0 
5491 916 1 -22.8806 61.954 0 0 0 
5474 913 1 -32.5221 61.2199 0 0 0 
5181 864 1 -34.029 56.4878 0 1 0 
3751 626 1 -18.6123 42.7003 0 0 0 
3752 626 1 -17.1573 42.2817 0 0 0 
5468 912 1 -36.251 61.1106 0 1 0 
4028 672 1 -26.6237 45.3147 0 1 0 
3756 626 1 -19.6843 41.6854 0 0 0 
3757 627 1 -14.8417 42.7501 0 0 0 
3758 627 1 -13.4209 42.2624 0 0 0 
5508 918 1 -16.5949 60.9715 0 0 0 
4316 720 1 -28.5131 48.3635 0 1 0 
3762 627 1 -15.9607 41.7716 0 0 0 
3763 628 1 -11.2702 42.7565 0 0 0 
3764 628 1 -9.8178 42.4184 0 0 0 
5514 919 1 -12.8536 60.9516 0 0 0 
5484 914 1 -31.348 60.7163 0 0 0 
3768 628 1 -12.2977 41.6792 0 0 0 
3769 629 1 -7.41385 42.951 0 0 0 
3770 629 1 -5.99379 42.433 0 0 0 
4317 720 1 -28.2166 46.8837 0 1 0 
5490 915 1 -27.6897 60.7703 0 0 0 
3774 629 1 -8.56411 41.9974 0 0 0 
3775 630 1 -3.75306 42.9645 0 0 0 
3776 630 1 -2.34121 42.4939 0 0 0 
3750 625 1 -23.5163 41.5909 0 0 0 
5496 916 1 -23.9983 60.9482 0 0 0 
5180 864 1 -34.3139 57.9623 0 1 0 
3780 630 1 -4.87476 41.9701 0 0 0 
5512 919 1 -11.0528 59.0915 0 0 0 
3740 624 1 -24.6037 42.0066 0 1 0 
5502 917 1 -20.2854 61.0226 0 0 0 
3786 631 1 -1.22481 41.959 0 0 0 
4033 673 1 -24.3474 45.8398 0 0 0 
4034 673 1 -22.9191 45.3985 0 0 0 
4035 673 1 -22.6026 43.942 0 0 0 
4036 673 1 -23.7091 42.9041 0 0 0 
4037 673 1 -25.12 43.3553 0 0 0 
4038 673 1 -25.4479 44.8152 0 0 0 
4039 674 1 -20.6113 45.8513 0 0 0 
4040 674 1 -19.1569 45.4099 0 0 0 
4041 674 1 -18.8037 43.9459 0 0 0 
4042 674 1 -19.9057 42.9229 0 0 0 
4043 674 1 -21.3613 43.3518 0 0 0 
4044 674 1 -21.6951 44.8169 0 0 0 
4045 675 1 -16.927 45.9075 0 0 0 
4046 675 1 -15.4703 45.5004 0 0 0 
4047 675 1 -15.0946 44.0372 0 0 0 
4048 675 1 -16.1559 42.9856 0 0 0 
4049 675 1 -17.6028 43.3936 0 0 0 
4050 675 1 -17.9973 44.8346 0 0 0 
4051 676 1 -13.1079 45.9461 0 0 0 
4052 676 1 -11.6874 45.4832 0 0 0 
4053 676 1 -11.3638 44.0193 0 0 0 
4054 676 1 -12.4927 43.0057 0 0 0 
4055 676 1 -13.9237 43.4881 0 0 0 
4056 676 1 -14.2228 44.9732 0 0 0 
4057 677 1 -9.51818 46.0581 0 0 0 
4058 677 1 -8.07773 45.6597 0 0 0 
4059 677 1 -7.69758 44.1982 0 0 0 
4060 677 1 -8.79041 43.1433 0 0 0 
4061 677 1 -10.218 43.55 0 0 0 
4062 677 1 -10.5856 45.0013 0 0 0 
4063 678 1 -5.75702 46.1627 0 0 0 
4064 678 1 -4.3056 45.7537 0 0 0 
4065 678 1 -3.93444 44.3068 0 0 0 
4066 678 1 -4.99375 43.2452 0 0 0 
4067 678 1 -6.44855 43.6463 0 0 0 
4068 678 1 -6.83348 45.0966 0 0 0 
4893 816 1 -32.0697 53.2737 0 1 0 
5486 915 1 -25.1689 61.3931 0 0 0 
4073 679 1 -2.78123 43.7569 0 0 0 
4074 679 1 -3.10508 45.2216 0 0 0 
4321 721 1 -26.3222 48.9568 0 0 0 
4322 721 1 -24.8582 48.5283 0 0 0 
4323 721 1 -24.5125 47.068 0 0 0 
4324 721 1 -25.6143 46.0428 0 0 0 
4325 721 1 -27.0463 46.4698 0 0 0 
4326 721 1 -27.3886 47.9081 0 0 0 
4327 722 1 -22.5645 49.0263 0 0 0 
4328 722 1 -21.1379 48.5704 0 0 0 
4329 722 1 -20.8141 47.0922 0 0 0 
4330 722 1 -21.9191 46.0919 0 0 0 
4331 722 1 -23.3585 46.5757 0 0 0 
4332 722 1 -23.6632 48.0374 0 0 0 
4333 723 1 -18.8829 49.0687 0 0 0 
4334 723 1 -17.4291 48.6555 0 0 0 
4335 723 1 -17.0978 47.1781 0 0 0 
4336 723 1 -18.1953 46.1464 0 0 0 
4337 723 1 -19.6463 46.5835 0 0 0 
4338 723 1 -19.9795 48.0502 0 0 0 
4339 724 1 -15.136 49.1239 0 0 0 
4340 724 1 -13.7173 48.6768 0 0 0 
4341 724 1 -13.3753 47.2209 0 0 0 
4342 724 1 -14.473 46.1849 0 0 0 
4343 724 1 -15.9026 46.6203 0 0 0 
4344 724 1 -16.2289 48.0895 0 0 0 
4345 725 1 -11.3692 49.1997 0 0 0 
4346 725 1 -9.94691 48.7384 0 0 0 
4347 725 1 -9.61978 47.2845 0 0 0 
4348 725 1 -10.7262 46.2601 0 0 0 
4349 725 1 -12.1489 46.7203 0 0 0 
4350 725 1 -12.492 48.1879 0 0 0 
4351 726 1 -7.66007 49.3365 0 0 0 
4352 726 1 -6.24625 48.8734 0 0 0 
4353 726 1 -5.94484 47.3966 0 0 0 
4354 726 1 -7.0539 46.4028 0 0 0 
4355 726 1 -8.4698 46.8569 0 0 0 
4356 726 1 -8.77465 48.3221 0 0 0 
4072 679 1 -1.35706 43.3039 0 0 0 
4360 727 1 -3.26693 46.4802 0 0 0 
4361 727 1 -4.69552 46.9314 0 0 0 
4362 727 1 -5.0237 48.3821 0 0 0 
4609 769 1 -28.2373 52.1403 0 0 0 
4610 769 1 -26.8096 51.7117 0 0 0 
4611 769 1 -26.4815 50.2387 0 0 0 
4612 769 1 -27.5813 49.2359 0 0 0 
4613 769 1 -29.0065 49.6689 0 0 0 
4614 769 1 -29.3361 51.1305 0 0 0 
4615 770 1 -24.5836 52.1886 0 0 0 
4616 770 1 -23.1354 51.7511 0 0 0 
4617 770 1 -22.7917 50.3002 0 0 0 
4618 770 1 -23.8981 49.2673 0 0 0 
4619 770 1 -25.3341 49.7205 0 0 0 
4620 770 1 -25.6659 51.1682 0 0 0 
4621 771 1 -20.7753 52.276 0 0 0 
4622 771 1 -19.3574 51.7842 0 0 0 
4623 771 1 -19.0595 50.3169 0 0 0 
4624 771 1 -20.1831 49.3297 0 0 0 
4625 771 1 -21.607 49.8021 0 0 0 
4626 771 1 -21.9117 51.2782 0 0 0 
4627 772 1 -17.0537 52.3323 0 0 0 
4628 772 1 -15.6407 51.8781 0 0 0 
4629 772 1 -15.3162 50.4301 0 0 0 
4630 772 1 -16.4349 49.4015 0 0 0 
4631 772 1 -17.8679 49.8654 0 0 0 
4632 772 1 -18.1745 51.3323 0 0 0 
4633 773 1 -13.3583 52.4225 0 0 0 
4634 773 1 -11.9447 51.9283 0 0 0 
4635 773 1 -11.644 50.4654 0 0 0 
4636 773 1 -12.7687 49.496 0 0 0 
4637 773 1 -14.173 49.9777 0 0 0 
4638 773 1 -14.4752 51.4442 0 0 0 
4639 774 1 -9.72242 52.4402 0 0 0 
4640 774 1 -8.27809 52.0717 0 0 0 
4641 774 1 -7.85304 50.6176 0 0 0 
4642 774 1 -8.92207 49.5362 0 0 0 
4643 774 1 -10.3822 49.9173 0 0 0 
4644 774 1 -10.767 51.3783 0 0 0 
5513 919 1 -12.4814 59.48 0 0 0 
4648 775 1 -5.23003 49.6705 0 0 0 
4649 775 1 -6.67267 50.0764 0 0 0 
4650 775 1 -7.0415 51.536 0 0 0 
4897 817 1 -30.2021 55.2423 0 0 0 
4898 817 1 -28.7586 54.8313 0 0 0 
4899 817 1 -28.4151 53.3606 0 0 0 
4900 817 1 -29.5002 52.3383 0 0 0 
4901 817 1 -30.9304 52.7644 0 0 0 
4902 817 1 -31.2812 54.2282 0 0 0 
4903 818 1 -26.5259 55.39 0 0 0 
4904 818 1 -25.0942 54.9399 0 0 0 
4905 818 1 -24.7556 53.4932 0 0 0 
4906 818 1 -25.8477 52.4459 0 0 0 
4907 818 1 -27.2664 52.9007 0 0 0 
4908 818 1 -27.5971 54.3621 0 0 0 
4909 819 1 -22.7859 55.453 0 0 0 
4910 819 1 -21.3385 55.0332 0 0 0 
4911 819 1 -20.9833 53.5849 0 0 0 
4912 819 1 -22.0474 52.5294 0 0 0 
4913 819 1 -23.4965 52.9316 0 0 0 
4914 819 1 -23.868 54.4031 0 0 0 
4915 820 1 -18.988 55.5334 0 0 0 
4916 820 1 -17.5764 55.0398 0 0 0 
4917 820 1 -17.309 53.5652 0 0 0 
4918 820 1 -18.4519 52.5866 0 0 0 
4919 820 1 -19.8574 53.0944 0 0 0 
4920 820 1 -20.1408 54.5732 0 0 0 
4921 821 1 -15.4271 55.6194 0 0 0 
4922 821 1 -13.9831 55.2258 0 0 0 
4923 821 1 -13.61 53.784 0 0 0 
4924 821 1 -14.6657 52.7154 0 0 0 
4925 821 1 -16.1004 53.1057 0 0 0 
4926 821 1 -16.4669 54.5624 0 0 0 
4927 822 1 -11.5865 55.6374 0 0 0 
4928 822 1 -10.1376 55.2018 0 0 0 
4929 822 1 -9.81731 53.7444 0 0 0 
4930 822 1 -10.9045 52.7233 0 0 0 
4931 822 1 -12.338 53.1625 0 0 0 
4932 822 1 -12.6733 54.6208 0 0 0 
4892 816 1 -32.3942 54.7458 0 1 0 
4936 823 1 -7.22341 52.7968 0 0 0 
4937 823 1 -8.65749 53.2801 0 0 0 
4938 823 1 -8.94358 54.7545 0 0 0 
5185 865 1 -32.122 58.4732 0 0 0 
5186 865 1 -30.6841 58.0439 0 0 0 
5187 865 1 -30.3554 56.59 0 0 0 
5188 865 1 -31.4661 55.5713 0 0 0 
5189 865 1 -32.8892 56.0145 0 0 0 
5190 865 1 -33.2095 57.4729 0 0 0 
5191 866 1 -28.3617 58.5359 0 0 0 
5192 866 1 -26.937 58.0638 0 0 0 
5193 866 1 -26.6205 56.6172 0 0 0 
5194 866 1 -27.7333 55.6154 0 0 0 
5195 866 1 -29.1445 56.0736 0 0 0 
5196 866 1 -29.4577 57.5434 0 0 0 
5197 867 1 -24.659 58.618 0 0 0 
5198 867 1 -23.263 58.1675 0 0 0 
5199 867 1 -22.9302 56.7224 0 0 0 
5200 867 1 -24.0534 55.7009 0 0 0 
5201 867 1 -25.4642 56.1509 0 0 0 
5202 867 1 -25.776 57.6161 0 0 0 
5203 868 1 -21.0393 58.7567 0 0 0 
5204 868 1 -19.6015 58.3608 0 0 0 
5205 868 1 -19.2062 56.9168 0 0 0 
5206 868 1 -20.2866 55.8531 0 0 0 
5207 868 1 -21.753 56.2419 0 0 0 
5208 868 1 -22.1267 57.6974 0 0 0 
5209 869 1 -17.2553 58.8106 0 0 0 
5210 869 1 -15.8355 58.3447 0 0 0 
5211 869 1 -15.5482 56.8862 0 0 0 
5212 869 1 -16.669 55.8929 0 0 0 
5213 869 1 -18.0992 56.3472 0 0 0 
5214 869 1 -18.3874 57.8122 0 0 0 
5215 870 1 -13.5256 58.8169 0 0 0 
5216 870 1 -12.0989 58.3636 0 0 0 
5217 870 1 -11.775 56.8987 0 0 0 
5218 870 1 -12.8721 55.875 0 0 0 
5219 870 1 -14.3156 56.3547 0 0 0 
5220 870 1 -14.6325 57.8224 0 0 0 
4029 672 1 -26.2234 43.8713 0 1 0 
5224 871 1 -9.18961 55.9702 0 0 0 
5225 871 1 -10.6261 56.4366 0 0 0 
5226 871 1 -10.9505 57.8938 0 0 0 
5475 913 1 -32.1859 59.7479 0 0 0 
5476 913 1 -33.2747 58.7335 0 0 0 
5477 913 1 -34.7249 59.1587 0 0 0 
5481 914 1 -28.512 59.7766 0 0 0 
5482 914 1 -29.6403 58.7836 0 0 0 
5483 914 1 -31.0508 59.247 0 0 0 
5487 915 1 -24.8171 59.9196 0 0 0 
5488 915 1 -25.8902 58.8828 0 0 0 
5489 915 1 -27.3339 59.3284 0 0 0 
5493 916 1 -21.1597 60.0135 0 0 0 
5494 916 1 -22.2625 59.0166 0 0 0 
5495 916 1 -23.6838 59.4704 0 0 0 
5499 917 1 -17.4347 60.0889 0 0 0 
5500 917 1 -18.5388 59.092 0 0 0 
5501 917 1 -19.9617 59.5411 0 0 0 
5505 918 1 -13.697 60.147 0 0 0 
5506 918 1 -14.7814 59.1094 0 0 0 
5507 918 1 -16.2192 59.5354 0 0 0 
5478 913 1 -35.059 60.6345 0 0 0 
4605 768 1 -30.1335 50.1333 0 1 0 
4604 768 1 -30.4839 51.5873 0 1 0 
5498 917 1 -17.7662 61.5652 0 0 0 
5480 914 1 -28.8088 61.2499 0 0 0 
5504 918 1 -14.0584 61.5837 0 0 0 
5479 914 1 -30.2226 61.7083 0 0 0 
5492 916 1 -21.4589 61.4606 0 0 0 
5473 913 1 -33.9649 61.6517 0 0 0 
5485 915 1 -26.6031 61.8091 0 0 0 
3739 624 1 -26.0332 42.4938 0 1 0 
5764 961 1 -35.2622 61.8289 0 0 0 
5503 918 1 -15.4882 62.0155 0 0 0 
5497 917 1 -19.1846 62.0245 0 0 0 
5509 919 1 -11.7838 61.987 0 0 0 
5770 962 1 -31.5111 61.94 0 0 0 
5221 871 1 -9.83947 58.8925 0 0 0 
5776 963 1 -27.8189 62.0453 0 0 0 
7527 1255 1 -23.534 82.4645 0 0 0 
7491 1249 1 -45.7519 81.9823 0 0 0 
7503 1251 1 -38.3328 82.2442 0 0 0 
6053 1009 1 -38.6388 65.5545 0 0 0 
7499 1250 1 -44.5605 81.4685 0 0 0 
7497 1250 1 -42.0212 81.9851 0 0 0 
5794 966 1 -16.7887 62.2664 0 0 0 
5797 967 1 -13.6579 65.2122 0 0 0 
7239 1207 1 -21.6334 79.2383 0 0 0 
7505 1251 1 -40.8276 81.6055 0 0 0 
5756 960 1 -38.2913 64.3998 0 1 0 
7515 1253 1 -30.9599 82.2145 0 0 0 
7517 1253 1 -33.4949 81.7212 0 0 0 
7523 1254 1 -29.7672 81.7131 0 0 0 
6373 1063 1 -17.5173 71.6306 0 0 0 
7511 1252 1 -37.2269 81.7367 0 0 0 
7529 1255 1 -26.0373 81.8116 0 0 0 
7509 1252 1 -34.683 82.1755 0 0 0 
7516 1253 1 -32.1051 81.2325 0 0 0 
6951 1159 1 -19.6518 76.1647 0 0 0 
5761 961 1 -35.9378 64.764 0 0 0 
5762 961 1 -34.4868 64.3347 0 0 0 
5763 961 1 -34.1551 62.8632 0 0 0 
6661 1111 1 -19.53 74.8745 0 0 0 
5765 961 1 -36.7004 62.269 0 0 0 
5766 961 1 -37.0219 63.7317 0 0 0 
5767 962 1 -32.2654 64.8304 0 0 0 
5768 962 1 -30.8193 64.4275 0 0 0 
5769 962 1 -30.4457 62.9922 0 0 0 
6629 1105 1 -42.584 71.8795 0 0 0 
5771 962 1 -32.9677 62.3322 0 0 0 
5772 962 1 -33.3421 63.7886 0 0 0 
5773 963 1 -28.5019 64.9595 0 0 0 
5774 963 1 -27.0612 64.5169 0 0 0 
5775 963 1 -26.7272 63.0426 0 0 0 
7240 1207 1 -22.7305 78.2472 0 0 0 
5777 963 1 -29.2569 62.4799 0 0 0 
5778 963 1 -29.6084 63.9336 0 0 0 
5779 964 1 -24.8113 65.0709 0 0 0 
5780 964 1 -23.3736 64.6388 0 0 0 
5781 964 1 -23.0075 63.1921 0 0 0 
7492 1249 1 -46.8698 80.966 0 0 0 
5783 964 1 -25.5488 62.5894 0 0 0 
5784 964 1 -25.8916 64.0552 0 0 0 
5785 965 1 -21.1084 65.1376 0 0 0 
5786 965 1 -19.6842 64.7053 0 0 0 
5787 965 1 -19.3377 63.2574 0 0 0 
6085 1015 1 -15.6929 68.4725 0 0 0 
5789 965 1 -21.8684 62.6742 0 0 0 
5790 965 1 -22.2127 64.1213 0 0 0 
5791 966 1 -17.3555 65.2192 0 0 0 
5792 966 1 -15.9388 64.7177 0 0 0 
5793 966 1 -15.6567 63.2587 0 0 0 
7237 1207 1 -23.3721 81.1822 0 0 0 
5795 966 1 -18.2197 62.7673 0 0 0 
5796 966 1 -18.4827 64.2391 0 0 0 
7498 1250 1 -43.1502 80.9834 0 0 0 
5788 965 1 -20.4283 62.2232 0 0 0 
5801 967 1 -14.4515 62.7201 0 0 0 
5802 967 1 -14.7668 64.1984 0 0 0 
6049 1009 1 -37.8479 68.0189 0 0 0 